 Entering Gaussian System, Link 0=g16
 Input=01-PbBr2_pc_22901793.com
 Output=01-PbBr2_pc_22901793.log
 Initial command:
 /cm/shared/uniol/software/gaussian/g16.c01/g16/l1.exe "/scratch/22901793_edba4025/Gau-10440.inp" -scrdir="/scratch/22901793_edba4025/"
 Entering Link 1 = /cm/shared/uniol/software/gaussian/g16.c01/g16/l1.exe PID=     10442.
  
 Copyright (c) 1988-2019, Gaussian, Inc.  All Rights Reserved.
  
 This is part of the Gaussian(R) 16 program.  It is based on
 the Gaussian(R) 09 system (copyright 2009, Gaussian, Inc.),
 the Gaussian(R) 03 system (copyright 2003, Gaussian, Inc.),
 the Gaussian(R) 98 system (copyright 1998, Gaussian, Inc.),
 the Gaussian(R) 94 system (copyright 1995, Gaussian, Inc.),
 the Gaussian 92(TM) system (copyright 1992, Gaussian, Inc.),
 the Gaussian 90(TM) system (copyright 1990, Gaussian, Inc.),
 the Gaussian 88(TM) system (copyright 1988, Gaussian, Inc.),
 the Gaussian 86(TM) system (copyright 1986, Carnegie Mellon
 University), and the Gaussian 82(TM) system (copyright 1983,
 Carnegie Mellon University). Gaussian is a federally registered
 trademark of Gaussian, Inc.
  
 This software contains proprietary and confidential information,
 including trade secrets, belonging to Gaussian, Inc.
  
 This software is provided under written license and may be
 used, copied, transmitted, or stored only in accord with that
 written license.
  
 The following legend is applicable only to US Government
 contracts under FAR:
  
                    RESTRICTED RIGHTS LEGEND
  
 Use, reproduction and disclosure by the US Government is
 subject to restrictions as set forth in subparagraphs (a)
 and (c) of the Commercial Computer Software - Restricted
 Rights clause in FAR 52.227-19.
  
 Gaussian, Inc.
 340 Quinnipiac St., Bldg. 40, Wallingford CT 06492
  
  
 ---------------------------------------------------------------
 Warning -- This program may not be used in any manner that
 competes with the business of Gaussian, Inc. or will provide
 assistance to any competitor of Gaussian, Inc.  The licensee
 of this program is prohibited from giving any competitor of
 Gaussian, Inc. access to this program.  By using this program,
 the user acknowledges that Gaussian, Inc. is engaged in the
 business of creating and licensing software in the field of
 computational chemistry and represents and warrants to the
 licensee that it is not a competitor of Gaussian, Inc. and that
 it will not use this program in any manner prohibited above.
 ---------------------------------------------------------------
  

 Cite this work as:
 Gaussian 16, Revision C.01,
 M. J. Frisch, G. W. Trucks, H. B. Schlegel, G. E. Scuseria, 
 M. A. Robb, J. R. Cheeseman, G. Scalmani, V. Barone, 
 G. A. Petersson, H. Nakatsuji, X. Li, M. Caricato, A. V. Marenich, 
 J. Bloino, B. G. Janesko, R. Gomperts, B. Mennucci, H. P. Hratchian, 
 J. V. Ortiz, A. F. Izmaylov, J. L. Sonnenberg, D. Williams-Young, 
 F. Ding, F. Lipparini, F. Egidi, J. Goings, B. Peng, A. Petrone, 
 T. Henderson, D. Ranasinghe, V. G. Zakrzewski, J. Gao, N. Rega, 
 G. Zheng, W. Liang, M. Hada, M. Ehara, K. Toyota, R. Fukuda, 
 J. Hasegawa, M. Ishida, T. Nakajima, Y. Honda, O. Kitao, H. Nakai, 
 T. Vreven, K. Throssell, J. A. Montgomery, Jr., J. E. Peralta, 
 F. Ogliaro, M. J. Bearpark, J. J. Heyd, E. N. Brothers, K. N. Kudin, 
 V. N. Staroverov, T. A. Keith, R. Kobayashi, J. Normand, 
 K. Raghavachari, A. P. Rendell, J. C. Burant, S. S. Iyengar, 
 J. Tomasi, M. Cossi, J. M. Millam, M. Klene, C. Adamo, R. Cammi, 
 J. W. Ochterski, R. L. Martin, K. Morokuma, O. Farkas, 
 J. B. Foresman, and D. J. Fox, Gaussian, Inc., Wallingford CT, 2019.
 
 ******************************************
 Gaussian 16:  ES64L-G16RevC.01  3-Jul-2019
                21-Nov-2020 
 ******************************************
 %Chk=01-PbBr2_pc
 %mem=16GB
 %NProcShared=4
 Will use up to    4 processors via shared memory.
 ----------------------------------------------------------------------
 # pbepbe/Gen pseudo=read Opt=(calcfc,cartesian) Freq EmpiricalDispersi
 on=GD3BJ SCRF=(read)
 ----------------------------------------------------------------------
 1/10=4,18=10,26=3,38=1,40=2/1,3;
 2/12=2,17=6,18=5,29=2,40=1/2;
 3/5=7,11=2,16=1,17=8,25=1,30=1,70=2203,71=2,74=1009,124=41,140=1/1,2,3;
 4//1;
 5/5=2,38=5/2;
 8/6=4,10=90,11=11/1;
 11/6=1,8=1,9=11,15=111,16=1/1,2,10;
 10/6=1,13=1/2;
 6/7=2,8=2,9=2,10=2,28=1/1;
 7/7=1,10=1,25=1/1,2,3,16;
 1/10=4,18=10,26=3/3(2);
 2/29=1/2;
 99/12=1/99;
 2/29=1/2;
 3/5=7,6=1,11=2,16=1,17=8,25=1,30=1,70=2205,71=1,74=1009,82=7,124=41/1,2,3;
 4/5=5,16=3,69=1/1;
 5/5=2,38=5/2;
 7/7=1/1,2,3,16;
 1/18=10,26=3/3(-5);
 2/29=1/2;
 6/7=2,8=2,9=2,10=2,19=2,28=1/1;
 99/9=1,12=1/99;
 ------------------------
 01-PbBr2_pc_22800503.log
 ------------------------
 Symbolic Z-matrix:
 Charge =  0 Multiplicity = 1
 Pb                   -0.02793  -0.78241  -0.23431 
 Br                    1.98548   0.49953  -1.89366 
 Br                    0.54198  -3.51198  -1.02054 
 O                    -0.48118   1.8372    0.5772 
 C                     0.43436   2.59627   0.45416 
 O                     1.57115   2.54868   1.19906 
 O                     0.45715   3.62801  -0.42368 
 C                     2.45078   3.66851   0.83561 
 C                     1.79146   4.20712  -0.44799 
 C                     3.86454   3.1679    0.67451 
 H                     1.69172   5.29968  -0.4726 
 H                     2.29663   3.83895  -1.36171 
 H                     3.91265   2.41407  -0.13891 
 H                     4.23231   2.72123   1.60906 
 H                     4.5283    4.02378   0.40847 
 H                     2.36437   4.4009    1.66634 
 O                    -1.79861  -0.77319   1.94392 
 C                    -2.8707   -1.10244   1.5174 
 O                    -4.06222  -0.75491   2.05971 
 O                    -3.03424  -1.88281   0.41161 
 C                    -5.14472  -1.45604   1.34845 
 C                    -4.44369  -1.90385   0.05774 
 C                    -6.3259   -0.5348    1.15755 
 H                    -4.70815  -2.92457  -0.25654 
 H                    -4.59479  -1.19041  -0.77607 
 H                    -6.04872   0.34034   0.54032 
 H                    -6.72083  -0.17954   2.12464 
 H                    -7.13671  -1.09026   0.63946 
 H                    -5.41249  -2.32628   1.98616 
 O                     1.54367  -0.56563   1.69672 
 C                     2.76804  -0.70752   1.69675 
 O                     3.41606  -1.61977   0.95931 
 O                     3.58249   0.04088   2.45636 
 C                     4.86576  -1.40204   1.10195 
 C                     4.93879  -0.4851    2.34199 
 C                     5.41466  -0.79665  -0.17318 
 H                     5.16483  -1.03648   3.2775 
 H                     5.62572   0.36611   2.21972 
 H                     4.95078   0.19198  -0.37405 
 H                     5.21098  -1.45252  -1.0339 
 H                     6.51004  -0.66663  -0.07857 
 H                     5.30599  -2.39519   1.30129 
 O                    -1.89367   0.21306  -1.94826 
 C                    -2.46207   1.1921   -1.48694 
 O                    -3.32315   1.13466  -0.44855 
 O                    -2.30768   2.44211  -1.96153 
 C                    -3.82598   2.48198  -0.14443 
 C                    -2.96238   3.37219  -1.05986 
 C                    -3.68318   2.75419   1.33739 
 H                    -3.55523   4.07906  -1.66702 
 H                    -2.16932   3.90979  -0.50608 
 H                    -2.61896   2.67953   1.63445 
 H                    -4.27505   2.02988   1.92718 
 H                    -4.05344   3.77509   1.55967 
 H                    -4.88843   2.48776  -0.46028 
 

 GradGradGradGradGradGradGradGradGradGradGradGradGradGradGradGradGradGrad
 Berny optimization.
 Initialization pass.
 No Z-matrix variables, so optimization will use Cartesian coordinates.
 Trust Radius=3.00D-01 FncErr=1.00D-07 GrdErr=1.00D-06 EigMax=2.50D+02 EigMin=1.00D-04
 Number of steps in this run=    175 maximum allowed number of steps=    330.
 GradGradGradGradGradGradGradGradGradGradGradGradGradGradGradGradGradGrad

 Stoichiometry    C16H24Br2O12Pb
 Framework group  C1[X(C16H24Br2O12Pb)]
 Deg. of freedom   159
 Full point group                 C1      NOp   1
 Largest Abelian subgroup         C1      NOp   1
 Largest concise Abelian subgroup C1      NOp   1
                         Standard orientation:                         
 ---------------------------------------------------------------------
 Center     Atomic      Atomic             Coordinates (Angstroms)
 Number     Number       Type             X           Y           Z
 ---------------------------------------------------------------------
      1         82           0       -0.027929   -0.782410   -0.234309
      2         35           0        1.985480    0.499531   -1.893659
      3         35           0        0.541983   -3.511980   -1.020539
      4          8           0       -0.481181    1.837199    0.577201
      5          6           0        0.434358    2.596270    0.454161
      6          8           0        1.571148    2.548681    1.199061
      7          8           0        0.457147    3.628010   -0.423679
      8          6           0        2.450777    3.668512    0.835611
      9          6           0        1.791457    4.207121   -0.447989
     10          6           0        3.864538    3.167903    0.674511
     11          1           0        1.691716    5.299681   -0.472599
     12          1           0        2.296627    3.838952   -1.361709
     13          1           0        3.912648    2.414073   -0.138909
     14          1           0        4.232308    2.721233    1.609061
     15          1           0        4.528297    4.023783    0.408471
     16          1           0        2.364367    4.400902    1.666341
     17          8           0       -1.798609   -0.773192    1.943921
     18          6           0       -2.870699   -1.102443    1.517401
     19          8           0       -4.062219   -0.754914    2.059711
     20          8           0       -3.034238   -1.882813    0.411611
     21          6           0       -5.144718   -1.456045    1.348451
     22          6           0       -4.443688   -1.903854    0.057741
     23          6           0       -6.325899   -0.534806    1.157551
     24          1           0       -4.708147   -2.924574   -0.256539
     25          1           0       -4.594789   -1.190414   -0.776069
     26          1           0       -6.048720    0.340335    0.540321
     27          1           0       -6.720829   -0.179546    2.124641
     28          1           0       -7.136709   -1.090266    0.639461
     29          1           0       -5.412488   -2.326285    1.986161
     30          8           0        1.543671   -0.565629    1.696721
     31          6           0        2.768041   -0.707518    1.696751
     32          8           0        3.416062   -1.619768    0.959311
     33          8           0        3.582490    0.040883    2.456361
     34          6           0        4.865762   -1.402036    1.101951
     35          6           0        4.938791   -0.485096    2.341991
     36          6           0        5.414661   -0.796646   -0.173179
     37          1           0        5.164831   -1.036476    3.277501
     38          1           0        5.625720    0.366114    2.219721
     39          1           0        4.950780    0.191984   -0.374049
     40          1           0        5.210982   -1.452516   -1.033899
     41          1           0        6.510041   -0.666625   -0.078569
     42          1           0        5.305992   -2.395186    1.301291
     43          8           0       -1.893670    0.213058   -1.948259
     44          6           0       -2.462071    1.192098   -1.486939
     45          8           0       -3.323150    1.134657   -0.448549
     46          8           0       -2.307682    2.442108   -1.961529
     47          6           0       -3.825982    2.481976   -0.144429
     48          6           0       -2.962382    3.372187   -1.059859
     49          6           0       -3.683182    2.754187    1.337391
     50          1           0       -3.555233    4.079057   -1.667019
     51          1           0       -2.169323    3.909788   -0.506079
     52          1           0       -2.618962    2.679527    1.634451
     53          1           0       -4.275051    2.029876    1.927181
     54          1           0       -4.053443    3.775086    1.559671
     55          1           0       -4.888432    2.487756   -0.460279
 ---------------------------------------------------------------------
 Rotational constants (GHZ):           0.1248239           0.0812078           0.0630379
 General basis read from cards:  (5D, 7F)
 ======================================================================================================
                                       Pseudopotential Parameters
 ======================================================================================================
  Center     Atomic      Valence      Angular      Power
  Number     Number     Electrons     Momentum     of R      Exponent        Coefficient   SO-Coeffient
 ======================================================================================================
    1         82            4
                                      G and up 
                                                     0      376.5803786       -0.17896050    0.00000000
                                                     1       86.4840014      -54.39723370    0.00000000
                                                     2       26.6784276     -199.70617590    0.00000000
                                                     2        9.4261986      -79.12239410    0.00000000
                                                     2        2.7101719      -24.98690200    0.00000000
                                                     2        0.8792031       -4.43979390    0.00000000
                                      S - G
                                                     0      132.4248796        2.81153860    0.00000000
                                                     1       47.2376044       65.03672050    0.00000000
                                                     2       17.6312727      212.78685450    0.00000000
                                                     2        5.4744712       72.10531750    0.00000000
                                                     2        1.2634856       33.01409400    0.00000000
                                                     2        0.7651447       -5.77084610    0.00000000
                                      P - G
                                                     0       67.8966454        4.87549110    0.00000000
                                                     1       24.9898225       63.91481020    0.00000000
                                                     2       10.7052939      148.10643580    0.00000000
                                                     2        3.2792568       47.31063010    0.00000000
                                                     2        0.8452522       21.03067020    0.00000000
                                                     2        0.6416245       -7.09307720    0.00000000
                                      D - G
                                                     0       68.8336005        3.21613880    0.00000000
                                                     1       24.2815874       55.73860860    0.00000000
                                                     2        9.4532762      121.41683510    0.00000000
                                                     2        2.4788185       19.34560640    0.00000000
                                                     2        2.4789161       15.36751680    0.00000000
                                                     2        0.5551738        6.12987240    0.00000000
                                      F - G
                                                     0      128.1021322        4.13536820    0.00000000
                                                     1       54.8029154       67.51284460    0.00000000
                                                     2       24.5529308      258.73731070    0.00000000
                                                     2        8.1144792      113.24782640    0.00000000
                                                     2        1.6931290       34.16802010    0.00000000
                                                     2        0.7670500       -6.55319560    0.00000000
    2         35            7
                                      F and up 
                                                     1      213.6143969      -28.00000000    0.00000000
                                                     2       41.0585380     -134.92688520    0.00000000
                                                     2        8.7086530      -41.92719130    0.00000000
                                                     2        2.6074661       -5.93364200    0.00000000
                                      S - F
                                                     0       54.1980682        3.00000000    0.00000000
                                                     1       32.9053558       27.34306420    0.00000000
                                                     2       13.6744890      118.80288470    0.00000000
                                                     2        3.0341152       43.43548760    0.00000000
                                      P - F
                                                     0       54.2563340        5.00000000    0.00000000
                                                     1       26.0095593       25.05042520    0.00000000
                                                     2       28.2012995       92.61574630    0.00000000
                                                     2        9.4341061       95.82490160    0.00000000
                                                     2        2.5321764       26.26849830    0.00000000
                                      D - F
                                                     0       87.6328721        3.00000000    0.00000000
                                                     1       61.7373377       22.55335570    0.00000000
                                                     2       32.4385104      178.12419880    0.00000000
                                                     2        8.7537199       76.99241620    0.00000000
                                                     2        1.6633189        9.48182700    0.00000000
    3         35            7
                                      F and up 
                                                     1      213.6143969      -28.00000000    0.00000000
                                                     2       41.0585380     -134.92688520    0.00000000
                                                     2        8.7086530      -41.92719130    0.00000000
                                                     2        2.6074661       -5.93364200    0.00000000
                                      S - F
                                                     0       54.1980682        3.00000000    0.00000000
                                                     1       32.9053558       27.34306420    0.00000000
                                                     2       13.6744890      118.80288470    0.00000000
                                                     2        3.0341152       43.43548760    0.00000000
                                      P - F
                                                     0       54.2563340        5.00000000    0.00000000
                                                     1       26.0095593       25.05042520    0.00000000
                                                     2       28.2012995       92.61574630    0.00000000
                                                     2        9.4341061       95.82490160    0.00000000
                                                     2        2.5321764       26.26849830    0.00000000
                                      D - F
                                                     0       87.6328721        3.00000000    0.00000000
                                                     1       61.7373377       22.55335570    0.00000000
                                                     2       32.4385104      178.12419880    0.00000000
                                                     2        8.7537199       76.99241620    0.00000000
                                                     2        1.6633189        9.48182700    0.00000000
    4          8
                                   No pseudopotential on this center.
    5          6
                                   No pseudopotential on this center.
    6          8
                                   No pseudopotential on this center.
    7          8
                                   No pseudopotential on this center.
    8          6
                                   No pseudopotential on this center.
    9          6
                                   No pseudopotential on this center.
   10          6
                                   No pseudopotential on this center.
   11          1
                                   No pseudopotential on this center.
   12          1
                                   No pseudopotential on this center.
   13          1
                                   No pseudopotential on this center.
   14          1
                                   No pseudopotential on this center.
   15          1
                                   No pseudopotential on this center.
   16          1
                                   No pseudopotential on this center.
   17          8
                                   No pseudopotential on this center.
   18          6
                                   No pseudopotential on this center.
   19          8
                                   No pseudopotential on this center.
   20          8
                                   No pseudopotential on this center.
   21          6
                                   No pseudopotential on this center.
   22          6
                                   No pseudopotential on this center.
   23          6
                                   No pseudopotential on this center.
   24          1
                                   No pseudopotential on this center.
   25          1
                                   No pseudopotential on this center.
   26          1
                                   No pseudopotential on this center.
   27          1
                                   No pseudopotential on this center.
   28          1
                                   No pseudopotential on this center.
   29          1
                                   No pseudopotential on this center.
   30          8
                                   No pseudopotential on this center.
   31          6
                                   No pseudopotential on this center.
   32          8
                                   No pseudopotential on this center.
   33          8
                                   No pseudopotential on this center.
   34          6
                                   No pseudopotential on this center.
   35          6
                                   No pseudopotential on this center.
   36          6
                                   No pseudopotential on this center.
   37          1
                                   No pseudopotential on this center.
   38          1
                                   No pseudopotential on this center.
   39          1
                                   No pseudopotential on this center.
   40          1
                                   No pseudopotential on this center.
   41          1
                                   No pseudopotential on this center.
   42          1
                                   No pseudopotential on this center.
   43          8
                                   No pseudopotential on this center.
   44          6
                                   No pseudopotential on this center.
   45          8
                                   No pseudopotential on this center.
   46          8
                                   No pseudopotential on this center.
   47          6
                                   No pseudopotential on this center.
   48          6
                                   No pseudopotential on this center.
   49          6
                                   No pseudopotential on this center.
   50          1
                                   No pseudopotential on this center.
   51          1
                                   No pseudopotential on this center.
   52          1
                                   No pseudopotential on this center.
   53          1
                                   No pseudopotential on this center.
   54          1
                                   No pseudopotential on this center.
   55          1
                                   No pseudopotential on this center.
 ======================================================================================================
 There are   564 symmetry adapted cartesian basis functions of A   symmetry.
 There are   536 symmetry adapted basis functions of A   symmetry.
   536 basis functions,  1128 primitive gaussians,   564 cartesian basis functions
   117 alpha electrons      117 beta electrons
       nuclear repulsion energy      3318.3057781159 Hartrees.
 NAtoms=   55 NActive=   55 NUniq=   55 SFac= 1.00D+00 NAtFMM=   60 NAOKFM=F Big=F
 Integral buffers will be    131072 words long.
 Raffenetti 2 integral format.
 Two-electron integral symmetry is turned on.
 Nuclear repulsion after empirical dispersion term =     3318.2333270004 Hartrees.
 Force inversion solution in PCM.
 Using the following non-standard input for PCM:
 eps=64.0
 --- end of non-standard input.
 Force inversion solution in PCM.
 ------------------------------------------------------------------------------
 Polarizable Continuum Model (PCM)
 =================================
 Model                : PCM.
 Atomic radii         : UFF (Universal Force Field).
 Polarization charges : Total charges.
 Charge compensation  : None.
 Solution method      : Matrix inversion.
 Cavity type          : Scaled VdW (van der Waals Surface) (Alpha=1.100).
 Cavity algorithm     : GePol (No added spheres)
                        Default sphere list used, NSphG=   55.
                        Lebedev-Laikov grids with approx.  5.0 points / Ang**2.
                        Smoothing algorithm: York/Karplus (Gamma=1.0000).
                        Polarization charges: spherical gaussians, with
                                              point-specific exponents (IZeta= 3).
                        Self-potential: point-specific (ISelfS= 7).
                        Self-field    : sphere-specific E.n sum rule (ISelfD= 2).
 1st derivatives      : Analytical E(r).r(x)/FMM algorithm (CHGder, D1EAlg=3).
                        Cavity 1st derivative terms included.
 2nd derivatives      : Analytical E(r).r(xy)/FMM algorithm (CHGder, D2EAlg=3).
                        Cavity 2nd derivative terms included.
 Solvent              : Water, Eps=  64.000000 Eps(inf)=   1.777849
 ------------------------------------------------------------------------------
 One-electron integrals computed using PRISM.
   1 Symmetry operations used in ECPInt.
 ECPInt:  NShTT=   31878 NPrTT=  245289 LenC2=   26111 LenP2D=   99266.
 LDataN:  DoStor=T MaxTD1= 6 Len=  172
 NBasis=   536 RedAO= T EigKep=  3.18D-03  NBF=   536
 NBsUse=   536 1.00D-06 EigRej= -1.00D+00 NBFU=   536
 Defaulting to unpruned grid for atomic number  82.
 ExpMin= 5.98D-02 ExpMax= 1.17D+04 ExpMxC= 4.01D+02 IAcc=3 IRadAn=         5 AccDes= 0.00D+00
 Harris functional with IExCor= 1009 and IRadAn=       5 diagonalized for initial guess.
 HarFok:  IExCor= 1009 AccDes= 0.00D+00 IRadAn=         5 IDoV= 1 UseB2=F ITyADJ=14
 ICtDFT=  3500011 ScaDFX=  1.000000  1.000000  1.000000  1.000000
 Defaulting to unpruned grid for atomic number  82.
 FoFCou: FMM=F IPFlag=           0 FMFlag=      100000 FMFlg1=           0
         NFxFlg=           0 DoJE=T BraDBF=F KetDBF=T FulRan=T
         wScrn=  0.000000 ICntrl=       500 IOpCl=  0 I1Cent=   200000004 NGrid=           0
         NMat0=    1 NMatS0=      1 NMatT0=    0 NMatD0=    1 NMtDS0=    0 NMtDT0=    0
 Petite list used in FoFCou.
 Requested convergence on RMS density matrix=1.00D-08 within 128 cycles.
 Requested convergence on MAX density matrix=1.00D-06.
 Requested convergence on             energy=1.00D-06.
 No special actions if energy rises.
 Defaulting to unpruned grid for atomic number  82.
 Defaulting to unpruned grid for atomic number  82.
 Defaulting to unpruned grid for atomic number  82.
 Defaulting to unpruned grid for atomic number  82.
 Inv3:  Mode=1 IEnd=    54417243.
 Iteration    1 A*A^-1 deviation from unit magnitude is 3.77D-15 for    113.
 Iteration    1 A*A^-1 deviation from orthogonality  is 2.17D-15 for    182    113.
 Iteration    1 A^-1*A deviation from unit magnitude is 3.11D-15 for   1983.
 Iteration    1 A^-1*A deviation from orthogonality  is 3.52D-15 for   2969   2950.
 Error on total polarization charges =  0.01491
 SCF Done:  E(RPBE-PBE) =  -1555.36517238     A.U. after   14 cycles
            NFock= 14  Conv=0.40D-08     -V/T= 2.0192
 DoSCS=F DFT=T ScalE2(SS,OS)=  1.000000  1.000000
 Range of M.O.s used for correlation:     1   536
 NBasis=   536 NAE=   117 NBE=   117 NFC=     0 NFV=     0
 NROrb=    536 NOA=   117 NOB=   117 NVA=   419 NVB=   419
   1 Symmetry operations used in ECPInt.
 ECPInt:  NShTT=   31878 NPrTT=  245289 LenC2=   26111 LenP2D=   99266.
 LDataN:  DoStor=T MaxTD1= 7 Len=  274
 Symmetrizing basis deriv contribution to polar:
 IMax=3 JMax=2 DiffMx= 0.00D+00
 G2DrvN: will do    56 centers at a time, making    1 passes.
 Calling FoFCou, ICntrl=  3507 FMM=F I1Cent=   0 AccDes= 0.00D+00.
 Defaulting to unpruned grid for atomic number  82.
 Defaulting to unpruned grid for atomic number  82.
 Defaulting to unpruned grid for atomic number  82.
 Defaulting to unpruned grid for atomic number  82.
 NEqPCM:  Using equilibrium solvation (IEInf=0, Eps=  64.0000, EpsInf=   1.7778)
 G2PCM: DoFxE=T DoFxN=T DoGrad=T DoDP/DQ/DG/TGxP=FFFF NFrqRd=   0 IEInf=0 SqF1=F DoCFld=F IF1Alg=4.
 End of G2Drv F.D. properties file   721 does not exist.
 End of G2Drv F.D. properties file   722 does not exist.
 End of G2Drv F.D. properties file   788 does not exist.
          IDoAtm=11111111111111111111111111111111111111111111111111
          IDoAtm=11111
 NEqPCM:  Using equilibrium solvation (IEInf=0, Eps=  64.0000, EpsInf=   1.7778)
          Differentiating once with respect to nuclear coordinates.
 Defaulting to unpruned grid for atomic number  82.
 CalDSu exits because no D1Ps are significant.
 Defaulting to unpruned grid for atomic number  82.
 Defaulting to unpruned grid for atomic number  82.
 Defaulting to unpruned grid for atomic number  82.
 Defaulting to unpruned grid for atomic number  82.
          There are   168 degrees of freedom in the 1st order CPHF.  IDoFFX=6 NUNeed=     0.
    162 vectors produced by pass  0 Test12= 4.90D-14 1.00D-09 XBig12= 1.52D-01 9.29D-02.
 AX will form   162 AO Fock derivatives at one time.
    162 vectors produced by pass  1 Test12= 4.90D-14 1.00D-09 XBig12= 2.21D-02 3.34D-02.
    162 vectors produced by pass  2 Test12= 4.90D-14 1.00D-09 XBig12= 1.02D-04 1.46D-03.
    162 vectors produced by pass  3 Test12= 4.90D-14 1.00D-09 XBig12= 1.23D-07 4.12D-05.
    150 vectors produced by pass  4 Test12= 4.90D-14 1.00D-09 XBig12= 7.67D-11 8.66D-07.
     22 vectors produced by pass  5 Test12= 4.90D-14 1.00D-09 XBig12= 6.35D-15 7.46D-09.
 InvSVY:  IOpt=1 It=  1 EMax= 5.00D-16
 Solved reduced A of dimension   820 with   168 vectors.
 End of Minotr F.D. properties file   721 does not exist.
 End of Minotr F.D. properties file   722 does not exist.
 End of Minotr F.D. properties file   788 does not exist.

 **********************************************************************

            Population analysis using the SCF Density.

 **********************************************************************

 Orbital symmetries:
       Occupied  (A) (A) (A) (A) (A) (A) (A) (A) (A) (A) (A) (A)
                 (A) (A) (A) (A) (A) (A) (A) (A) (A) (A) (A) (A)
                 (A) (A) (A) (A) (A) (A) (A) (A) (A) (A) (A) (A)
                 (A) (A) (A) (A) (A) (A) (A) (A) (A) (A) (A) (A)
                 (A) (A) (A) (A) (A) (A) (A) (A) (A) (A) (A) (A)
                 (A) (A) (A) (A) (A) (A) (A) (A) (A) (A) (A) (A)
                 (A) (A) (A) (A) (A) (A) (A) (A) (A) (A) (A) (A)
                 (A) (A) (A) (A) (A) (A) (A) (A) (A) (A) (A) (A)
                 (A) (A) (A) (A) (A) (A) (A) (A) (A) (A) (A) (A)
                 (A) (A) (A) (A) (A) (A) (A) (A) (A)
       Virtual   (A) (A) (A) (A) (A) (A) (A) (A) (A) (A) (A) (A)
                 (A) (A) (A) (A) (A) (A) (A) (A) (A) (A) (A) (A)
                 (A) (A) (A) (A) (A) (A) (A) (A) (A) (A) (A) (A)
                 (A) (A) (A) (A) (A) (A) (A) (A) (A) (A) (A) (A)
                 (A) (A) (A) (A) (A) (A) (A) (A) (A) (A) (A) (A)
                 (A) (A) (A) (A) (A) (A) (A) (A) (A) (A) (A) (A)
                 (A) (A) (A) (A) (A) (A) (A) (A) (A) (A) (A) (A)
                 (A) (A) (A) (A) (A) (A) (A) (A) (A) (A) (A) (A)
                 (A) (A) (A) (A) (A) (A) (A) (A) (A) (A) (A) (A)
                 (A) (A) (A) (A) (A) (A) (A) (A) (A) (A) (A) (A)
                 (A) (A) (A) (A) (A) (A) (A) (A) (A) (A) (A) (A)
                 (A) (A) (A) (A) (A) (A) (A) (A) (A) (A) (A) (A)
                 (A) (A) (A) (A) (A) (A) (A) (A) (A) (A) (A) (A)
                 (A) (A) (A) (A) (A) (A) (A) (A) (A) (A) (A) (A)
                 (A) (A) (A) (A) (A) (A) (A) (A) (A) (A) (A) (A)
                 (A) (A) (A) (A) (A) (A) (A) (A) (A) (A) (A) (A)
                 (A) (A) (A) (A) (A) (A) (A) (A) (A) (A) (A) (A)
                 (A) (A) (A) (A) (A) (A) (A) (A) (A) (A) (A) (A)
                 (A) (A) (A) (A) (A) (A) (A) (A) (A) (A) (A) (A)
                 (A) (A) (A) (A) (A) (A) (A) (A) (A) (A) (A) (A)
                 (A) (A) (A) (A) (A) (A) (A) (A) (A) (A) (A) (A)
                 (A) (A) (A) (A) (A) (A) (A) (A) (A) (A) (A) (A)
                 (A) (A) (A) (A) (A) (A) (A) (A) (A) (A) (A) (A)
                 (A) (A) (A) (A) (A) (A) (A) (A) (A) (A) (A) (A)
                 (A) (A) (A) (A) (A) (A) (A) (A) (A) (A) (A) (A)
                 (A) (A) (A) (A) (A) (A) (A) (A) (A) (A) (A) (A)
                 (A) (A) (A) (A) (A) (A) (A) (A) (A) (A) (A) (A)
                 (A) (A) (A) (A) (A) (A) (A) (A) (A) (A) (A) (A)
                 (A) (A) (A) (A) (A) (A) (A) (A) (A) (A) (A) (A)
                 (A) (A) (A) (A) (A) (A) (A) (A) (A) (A) (A) (A)
                 (A) (A) (A) (A) (A) (A) (A) (A) (A) (A) (A) (A)
                 (A) (A) (A) (A) (A) (A) (A) (A) (A) (A) (A) (A)
                 (A) (A) (A) (A) (A) (A) (A) (A) (A) (A) (A) (A)
                 (A) (A) (A) (A) (A) (A) (A) (A) (A) (A) (A) (A)
                 (A) (A) (A) (A) (A) (A) (A) (A) (A) (A) (A)
 The electronic state is 1-A.
 Alpha  occ. eigenvalues --  -18.84310 -18.84003 -18.83394 -18.83389 -18.83258
 Alpha  occ. eigenvalues --  -18.83038 -18.82958 -18.82515 -18.79042 -18.77977
 Alpha  occ. eigenvalues --  -18.77974 -18.77674 -10.08639 -10.07646 -10.07325
 Alpha  occ. eigenvalues --  -10.07299  -9.98227  -9.97833  -9.97818  -9.97638
 Alpha  occ. eigenvalues --   -9.97489  -9.96930  -9.96918  -9.96782  -9.90745
 Alpha  occ. eigenvalues --   -9.90422  -9.90293  -9.90253  -1.08526  -1.07623
 Alpha  occ. eigenvalues --   -1.07302  -1.07151  -0.97813  -0.97457  -0.97223
 Alpha  occ. eigenvalues --   -0.97010  -0.96987  -0.96452  -0.96189  -0.96142
 Alpha  occ. eigenvalues --   -0.73849  -0.73560  -0.73462  -0.73251  -0.65684
 Alpha  occ. eigenvalues --   -0.65150  -0.65083  -0.64946  -0.63015  -0.62301
 Alpha  occ. eigenvalues --   -0.59400  -0.58660  -0.58472  -0.58127  -0.56132
 Alpha  occ. eigenvalues --   -0.55620  -0.55319  -0.55128  -0.49863  -0.49271
 Alpha  occ. eigenvalues --   -0.48907  -0.48660  -0.47949  -0.46892  -0.46394
 Alpha  occ. eigenvalues --   -0.46199  -0.45626  -0.45370  -0.44158  -0.43973
 Alpha  occ. eigenvalues --   -0.43889  -0.42142  -0.41313  -0.41080  -0.40760
 Alpha  occ. eigenvalues --   -0.40002  -0.39800  -0.39660  -0.39038  -0.38964
 Alpha  occ. eigenvalues --   -0.38844  -0.38526  -0.38065  -0.37023  -0.36470
 Alpha  occ. eigenvalues --   -0.36317  -0.36262  -0.35081  -0.34715  -0.34309
 Alpha  occ. eigenvalues --   -0.34247  -0.34018  -0.33598  -0.33243  -0.32873
 Alpha  occ. eigenvalues --   -0.31930  -0.31796  -0.31512  -0.31460  -0.29226
 Alpha  occ. eigenvalues --   -0.29019  -0.28305  -0.28200  -0.27976  -0.27648
 Alpha  occ. eigenvalues --   -0.27507  -0.27099  -0.27013  -0.26572  -0.26495
 Alpha  occ. eigenvalues --   -0.26229  -0.24932  -0.22696  -0.22194  -0.21724
 Alpha  occ. eigenvalues --   -0.21404  -0.21070
 Alpha virt. eigenvalues --   -0.05310  -0.04489  -0.03980  -0.02337  -0.01540
 Alpha virt. eigenvalues --   -0.00984  -0.00182   0.01312   0.01813   0.02353
 Alpha virt. eigenvalues --    0.02823   0.03179   0.03718   0.04377   0.04494
 Alpha virt. eigenvalues --    0.05847   0.06786   0.07123   0.07594   0.07811
 Alpha virt. eigenvalues --    0.07960   0.08049   0.08488   0.08959   0.09089
 Alpha virt. eigenvalues --    0.09968   0.10028   0.10655   0.10976   0.11432
 Alpha virt. eigenvalues --    0.11671   0.12146   0.12457   0.12496   0.12988
 Alpha virt. eigenvalues --    0.13083   0.13262   0.13963   0.14569   0.14646
 Alpha virt. eigenvalues --    0.15299   0.15926   0.16144   0.18279   0.18462
 Alpha virt. eigenvalues --    0.19735   0.20056   0.20301   0.21034   0.22067
 Alpha virt. eigenvalues --    0.23142   0.23652   0.24344   0.28300   0.29174
 Alpha virt. eigenvalues --    0.29742   0.30133   0.30863   0.31420   0.31645
 Alpha virt. eigenvalues --    0.32275   0.33193   0.33404   0.35099   0.35745
 Alpha virt. eigenvalues --    0.36450   0.37160   0.37522   0.37588   0.38038
 Alpha virt. eigenvalues --    0.38927   0.39462   0.39694   0.40446   0.41061
 Alpha virt. eigenvalues --    0.42308   0.42838   0.43709   0.44290   0.44423
 Alpha virt. eigenvalues --    0.44803   0.45454   0.45656   0.46007   0.46415
 Alpha virt. eigenvalues --    0.47427   0.47801   0.48166   0.48284   0.48844
 Alpha virt. eigenvalues --    0.49018   0.49539   0.49938   0.50459   0.50912
 Alpha virt. eigenvalues --    0.50925   0.51453   0.51785   0.52226   0.52857
 Alpha virt. eigenvalues --    0.52963   0.53369   0.53752   0.54188   0.54378
 Alpha virt. eigenvalues --    0.54925   0.55216   0.55475   0.55954   0.56194
 Alpha virt. eigenvalues --    0.56829   0.57153   0.57449   0.58070   0.58370
 Alpha virt. eigenvalues --    0.58557   0.59047   0.59535   0.59776   0.59956
 Alpha virt. eigenvalues --    0.60332   0.60789   0.61040   0.61276   0.61970
 Alpha virt. eigenvalues --    0.62245   0.62810   0.63107   0.63893   0.64373
 Alpha virt. eigenvalues --    0.64569   0.65091   0.66596   0.67287   0.67415
 Alpha virt. eigenvalues --    0.68418   0.69675   0.70007   0.71369   0.73102
 Alpha virt. eigenvalues --    0.74763   0.75350   0.76140   0.76495   0.78836
 Alpha virt. eigenvalues --    0.79003   0.79432   0.80201   0.80520   0.80710
 Alpha virt. eigenvalues --    0.82273   0.83440   0.84545   0.86918   0.89324
 Alpha virt. eigenvalues --    0.91347   0.93413   0.94180   0.94241   0.95138
 Alpha virt. eigenvalues --    0.95453   0.95895   0.97205   0.97830   0.98150
 Alpha virt. eigenvalues --    0.99051   0.99780   1.00232   1.01175   1.01921
 Alpha virt. eigenvalues --    1.02324   1.02647   1.02931   1.03226   1.03759
 Alpha virt. eigenvalues --    1.04136   1.04788   1.05090   1.05781   1.06441
 Alpha virt. eigenvalues --    1.07025   1.08366   1.09034   1.09395   1.10348
 Alpha virt. eigenvalues --    1.11319   1.11565   1.12202   1.12641   1.13361
 Alpha virt. eigenvalues --    1.14078   1.14799   1.16637   1.16773   1.18474
 Alpha virt. eigenvalues --    1.18603   1.19341   1.19561   1.20978   1.22121
 Alpha virt. eigenvalues --    1.22662   1.23744   1.25068   1.25392   1.26719
 Alpha virt. eigenvalues --    1.26965   1.27670   1.28040   1.29737   1.30084
 Alpha virt. eigenvalues --    1.31443   1.32396   1.32981   1.33399   1.33952
 Alpha virt. eigenvalues --    1.34466   1.35023   1.35523   1.35851   1.36289
 Alpha virt. eigenvalues --    1.38446   1.38932   1.39319   1.41410   1.42450
 Alpha virt. eigenvalues --    1.43418   1.44032   1.45722   1.46528   1.47414
 Alpha virt. eigenvalues --    1.47639   1.47923   1.48079   1.48647   1.49337
 Alpha virt. eigenvalues --    1.49681   1.50068   1.50745   1.51022   1.51734
 Alpha virt. eigenvalues --    1.51861   1.52553   1.52946   1.53055   1.53361
 Alpha virt. eigenvalues --    1.54010   1.54619   1.56425   1.56508   1.57199
 Alpha virt. eigenvalues --    1.57598   1.58192   1.58711   1.59509   1.59762
 Alpha virt. eigenvalues --    1.59945   1.60036   1.60665   1.60992   1.61359
 Alpha virt. eigenvalues --    1.61989   1.62380   1.63517   1.63874   1.64106
 Alpha virt. eigenvalues --    1.64609   1.65821   1.65963   1.67729   1.68717
 Alpha virt. eigenvalues --    1.69331   1.69843   1.70670   1.71605   1.71847
 Alpha virt. eigenvalues --    1.72093   1.72350   1.72756   1.73158   1.74098
 Alpha virt. eigenvalues --    1.75573   1.76350   1.77402   1.77929   1.78051
 Alpha virt. eigenvalues --    1.79217   1.79583   1.80166   1.80473   1.81740
 Alpha virt. eigenvalues --    1.81773   1.84125   1.85311   1.86602   1.87329
 Alpha virt. eigenvalues --    1.88425   1.88515   1.88925   1.89958   1.91045
 Alpha virt. eigenvalues --    1.93927   1.94388   1.94704   1.95294   1.97796
 Alpha virt. eigenvalues --    1.99159   2.00318   2.01946   2.03420   2.04898
 Alpha virt. eigenvalues --    2.05004   2.05511   2.05762   2.06006   2.06449
 Alpha virt. eigenvalues --    2.07305   2.12732   2.13063   2.13839   2.14399
 Alpha virt. eigenvalues --    2.15824   2.16894   2.17722   2.18328   2.19040
 Alpha virt. eigenvalues --    2.19953   2.20175   2.20269   2.20823   2.21736
 Alpha virt. eigenvalues --    2.23718   2.24350   2.31519   2.32300   2.32748
 Alpha virt. eigenvalues --    2.34365   2.34711   2.35336   2.35753   2.36108
 Alpha virt. eigenvalues --    2.37005   2.37476   2.38030   2.39199   2.40324
 Alpha virt. eigenvalues --    2.41453   2.42744   2.42952   2.43701   2.44240
 Alpha virt. eigenvalues --    2.44673   2.45349   2.46269   2.48228   2.48988
 Alpha virt. eigenvalues --    2.49222   2.52083   2.52746   2.53537   2.53861
 Alpha virt. eigenvalues --    2.54331   2.55920   2.57084   2.58661   2.63879
 Alpha virt. eigenvalues --    2.65567   2.66317   2.66377   2.69539   2.70220
 Alpha virt. eigenvalues --    2.70545   2.70800   2.76756   2.77284   2.77542
 Alpha virt. eigenvalues --    2.77698   2.78173   2.79585   2.80530   2.80638
 Alpha virt. eigenvalues --    2.91240   2.91252   2.92254   2.92777   2.93752
 Alpha virt. eigenvalues --    2.94204   2.94550   2.95059   2.95856   2.96459
 Alpha virt. eigenvalues --    2.97609   2.99547   3.02509   3.04279   3.05371
 Alpha virt. eigenvalues --    3.05847   3.06251   3.06826   3.07413   3.07644
 Alpha virt. eigenvalues --    3.15009   3.16333   3.16731   3.17445   3.27049
 Alpha virt. eigenvalues --    3.30390   3.30731   3.32884   3.37460   3.41379
 Alpha virt. eigenvalues --    3.42268   3.43227   3.44519   3.45030   3.45242
 Alpha virt. eigenvalues --    3.49782   9.74079  18.37759  18.71792
          Condensed to atoms (all electrons):
 Mulliken charges:
               1
     1  Pb   0.829488
     2  Br  -0.616821
     3  Br  -0.630882
     4  O   -0.265918
     5  C    0.328638
     6  O   -0.209038
     7  O   -0.224082
     8  C   -0.032998
     9  C    0.161242
    10  C   -0.035661
    11  H    0.072824
    12  H    0.058478
    13  H    0.066353
    14  H    0.056548
    15  H    0.061477
    16  H    0.056465
    17  O   -0.248985
    18  C    0.315717
    19  O   -0.212044
    20  O   -0.235248
    21  C   -0.035976
    22  C    0.160164
    23  C   -0.025694
    24  H    0.075713
    25  H    0.059250
    26  H    0.062338
    27  H    0.060603
    28  H    0.067258
    29  H    0.061366
    30  O   -0.314833
    31  C    0.367873
    32  O   -0.188486
    33  O   -0.200535
    34  C   -0.042197
    35  C    0.147085
    36  C   -0.008986
    37  H    0.081683
    38  H    0.075941
    39  H    0.059687
    40  H    0.055838
    41  H    0.063664
    42  H    0.061291
    43  O   -0.289625
    44  C    0.323075
    45  O   -0.217432
    46  O   -0.206203
    47  C   -0.044274
    48  C    0.154125
    49  C   -0.023839
    50  H    0.073760
    51  H    0.058581
    52  H    0.053549
    53  H    0.051404
    54  H    0.062181
    55  H    0.066100
 Sum of Mulliken charges =  -0.00000
 Mulliken charges with hydrogens summed into heavy atoms:
               1
     1  Pb   0.829488
     2  Br  -0.616821
     3  Br  -0.630882
     4  O   -0.265918
     5  C    0.328638
     6  O   -0.209038
     7  O   -0.224082
     8  C    0.023467
     9  C    0.292544
    10  C    0.148716
    17  O   -0.248985
    18  C    0.315717
    19  O   -0.212044
    20  O   -0.235248
    21  C    0.025390
    22  C    0.295127
    23  C    0.164505
    30  O   -0.314833
    31  C    0.367873
    32  O   -0.188486
    33  O   -0.200535
    34  C    0.019095
    35  C    0.304708
    36  C    0.170203
    43  O   -0.289625
    44  C    0.323075
    45  O   -0.217432
    46  O   -0.206203
    47  C    0.021826
    48  C    0.286466
    49  C    0.143295
 APT charges:
               1
     1  Pb   0.715490
     2  Br  -0.583311
     3  Br  -0.528746
     4  O   -0.858190
     5  C    0.315998
     6  O   -0.137702
     7  O   -0.033294
     8  C   -1.026586
     9  C   -0.567379
    10  C   -0.687961
    11  H    0.973057
    12  H    0.203134
    13  H   -0.180406
    14  H    0.332378
    15  H    0.978236
    16  H    0.741655
    17  O   -0.969716
    18  C    0.374702
    19  O    0.331376
    20  O   -0.478711
    21  C   -1.090038
    22  C   -0.496351
    23  C   -0.780808
    24  H    0.781797
    25  H    0.123045
    26  H   -0.195416
    27  H    0.763301
    28  H    0.950210
    29  H    0.801600
    30  O   -1.157971
    31  C    0.499341
    32  O   -0.120633
    33  O    0.045242
    34  C   -1.079803
    35  C   -0.794254
    36  C   -0.646928
    37  H    0.823799
    38  H    0.687735
    39  H   -0.254653
    40  H    0.165875
    41  H    1.098311
    42  H    0.888736
    43  O   -0.658850
    44  C    0.146801
    45  O   -0.146787
    46  O    0.043590
    47  C   -1.041755
    48  C   -0.547754
    49  C   -0.641917
    50  H    1.028439
    51  H    0.057066
    52  H   -0.314303
    53  H    0.365025
    54  H    0.891731
    55  H    0.892549
 Sum of APT charges =  -0.00000
 APT charges with hydrogens summed into heavy atoms:
               1
     1  Pb   0.715490
     2  Br  -0.583311
     3  Br  -0.528746
     4  O   -0.858190
     5  C    0.315998
     6  O   -0.137702
     7  O   -0.033294
     8  C   -0.284931
     9  C    0.608813
    10  C    0.442248
    17  O   -0.969716
    18  C    0.374702
    19  O    0.331376
    20  O   -0.478711
    21  C   -0.288439
    22  C    0.408492
    23  C    0.737286
    30  O   -1.157971
    31  C    0.499341
    32  O   -0.120633
    33  O    0.045242
    34  C   -0.191067
    35  C    0.717280
    36  C    0.362605
    43  O   -0.658850
    44  C    0.146801
    45  O   -0.146787
    46  O    0.043590
    47  C   -0.149205
    48  C    0.537752
    49  C    0.300536
 Electronic spatial extent (au):  <R**2>=          15357.1245
 Charge=              0.0000 electrons
 Dipole moment (field-independent basis, Debye):
    X=             -4.2881    Y=             13.5603    Z=              9.3065  Tot=             16.9965
 Quadrupole moment (field-independent basis, Debye-Ang):
   XX=            -83.1495   YY=           -189.1552   ZZ=           -225.1025
   XY=              7.5326   XZ=             24.0852   YZ=            -12.0237
 Traceless Quadrupole moment (field-independent basis, Debye-Ang):
   XX=             82.6529   YY=            -23.3528   ZZ=            -59.3001
   XY=              7.5326   XZ=             24.0852   YZ=            -12.0237
 Octapole moment (field-independent basis, Debye-Ang**2):
  XXX=             12.3215  YYY=            107.1171  ZZZ=            -73.1288  XYY=             -8.1683
  XXY=            -80.7871  XXZ=             98.9981  XZZ=             36.7617  YZZ=            -69.0957
  YYZ=             13.7903  XYZ=              1.3173
 Hexadecapole moment (field-independent basis, Debye-Ang**3):
 XXXX=          -8925.5285 YYYY=          -5593.1178 ZZZZ=          -2503.0695 XXXY=            -18.9893
 XXXZ=            265.7410 YYYX=            201.6549 YYYZ=            -60.5700 ZZZX=             34.4997
 ZZZY=             58.7262 XXYY=          -2424.4126 XXZZ=          -2308.2272 YYZZ=          -1397.9609
 XXYZ=           -130.2209 YYXZ=             35.6606 ZZXY=            -46.8560
 N-N= 3.318233327000D+03 E-N=-1.027049346852D+04  KE= 1.526017967255D+03
  Exact polarizability:       0.000       0.000       0.000       0.000       0.000       0.000
 Approx polarizability:     515.867      18.031     515.309     -33.928      20.774     409.038
   1 Symmetry operations used in ECPInt.
 ECPInt:  NShTT=   31878 NPrTT=  245289 LenC2=   26111 LenP2D=   99266.
 LDataN:  DoStor=T MaxTD1= 8 Len=  415
 D2PCM: PCM CHGder 2nd derivatives, FixD1E=F FixD2E=F DoIter=F DoCFld=F I1PDM=0
 Calling FoFJK, ICntrl=    100527 FMM=F ISym2X=0 I1Cent= 0 IOpClX= 0 NMat=1 NMatS=1 NMatT=0.
 Defaulting to unpruned grid for atomic number  82.
 Defaulting to unpruned grid for atomic number  82.
 Defaulting to unpruned grid for atomic number  82.
 Defaulting to unpruned grid for atomic number  82.
 ***** Axes restored to original set *****
 -------------------------------------------------------------------
 Center     Atomic                   Forces (Hartrees/Bohr)
 Number     Number              X              Y              Z
 -------------------------------------------------------------------
      1       82           0.001205612   -0.001511195   -0.001023998
      2       35          -0.000397806   -0.000248931    0.000167840
      3       35          -0.000136429    0.000652648    0.000134145
      4        8          -0.035526376   -0.028582636    0.004195454
      5        6           0.046120982    0.033120387   -0.000411841
      6        8          -0.005182661   -0.000813333   -0.003105424
      7        8          -0.002080117    0.000408242   -0.001666245
      8        6          -0.005016644   -0.000008288    0.001565400
      9        6          -0.001731937   -0.006783867    0.001681122
     10        6           0.003273611    0.004548447   -0.006579464
     11        1          -0.000239225    0.003867107    0.000159997
     12        1           0.000631913   -0.000041028   -0.000628183
     13        1          -0.000132601    0.000682468    0.001086102
     14        1           0.001243852   -0.001765501    0.003747490
     15        1          -0.002145231   -0.003358413    0.001109854
     16        1           0.000820713   -0.000467965   -0.000665776
     17        8           0.029528867    0.009078430    0.011918965
     18        6          -0.037032240   -0.010521629   -0.013603944
     19        8           0.002460561    0.000641587    0.000682399
     20        8           0.001171932    0.000323172    0.000580063
     21        6           0.002205815   -0.000703475    0.001825280
     22        6           0.002066671    0.002086971    0.001144328
     23        6          -0.001486978   -0.001195679   -0.002588790
     24        1          -0.000305346   -0.002084202   -0.000314291
     25        1          -0.000223023    0.000380410    0.000232397
     26        1           0.000107141    0.000341820   -0.000881957
     27        1          -0.000281179   -0.000131685    0.001990209
     28        1           0.001136342    0.001192296    0.000604859
     29        1           0.000265017    0.000754038   -0.001129579
     30        8          -0.000096047    0.000099295    0.000490810
     31        6          -0.000063442   -0.000557694   -0.001797800
     32        8           0.000505598    0.000997861    0.001647994
     33        8           0.000722475    0.000648782    0.000615136
     34        6           0.001909715    0.001109439    0.000384037
     35        6          -0.004144557   -0.005093222    0.000928997
     36        6          -0.001050274    0.003935438    0.000938051
     37        1           0.000112881    0.001183623   -0.001504382
     38        1           0.001253617    0.001835078   -0.000526830
     39        1           0.000727396   -0.001191348    0.000471372
     40        1          -0.000366092   -0.002239949   -0.002438037
     41        1           0.000462871   -0.000180259    0.000249830
     42        1          -0.000247721   -0.000548081    0.000351283
     43        8           0.002253895   -0.003889632   -0.001797730
     44        6          -0.002801335    0.005004345    0.002142141
     45        8           0.000275321   -0.000544275   -0.000085299
     46        8           0.000257606   -0.000917413   -0.000224885
     47        6           0.000321245   -0.000383717   -0.000180521
     48        6          -0.000399697    0.000650091   -0.000707537
     49        6           0.000421708    0.000385220   -0.000076456
     50        1           0.000193049   -0.000060483    0.000324951
     51        1           0.000037973    0.000204434    0.000266815
     52        1          -0.000499730    0.000053992    0.000018452
     53        1          -0.000092864   -0.000187138    0.000145193
     54        1           0.000078356   -0.000211685    0.000097895
     55        1          -0.000093185    0.000037099    0.000040112
 -------------------------------------------------------------------
 Cartesian Forces:  Max     0.046120982 RMS     0.007202228

 GradGradGradGradGradGradGradGradGradGradGradGradGradGradGradGradGradGrad
 Berny optimization.
 Search for a local minimum.
 Step number   1 out of a maximum of  175
 All quantities printed in internal units (Hartrees-Bohrs-Radians)
 Second derivative matrix not updated -- analytic derivatives used.
 ITU=  0
     Eigenvalues ---   -0.00045  -0.00029  -0.00004   0.00006   0.00010
     Eigenvalues ---    0.00017   0.00027   0.00034   0.00044   0.00051
     Eigenvalues ---    0.00066   0.00076   0.00087   0.00115   0.00117
     Eigenvalues ---    0.00134   0.00161   0.00167   0.00190   0.00200
     Eigenvalues ---    0.00213   0.00238   0.00272   0.00290   0.00308
     Eigenvalues ---    0.00341   0.00406   0.00483   0.00596   0.00696
     Eigenvalues ---    0.00752   0.00903   0.00968   0.01001   0.01058
     Eigenvalues ---    0.01106   0.01164   0.01406   0.01505   0.02347
     Eigenvalues ---    0.02529   0.02650   0.02855   0.03021   0.03762
     Eigenvalues ---    0.03808   0.03875   0.04100   0.04292   0.04681
     Eigenvalues ---    0.04702   0.04809   0.05080   0.05635   0.05820
     Eigenvalues ---    0.05832   0.05870   0.06463   0.06768   0.06803
     Eigenvalues ---    0.06836   0.07029   0.07202   0.07245   0.07285
     Eigenvalues ---    0.07334   0.07530   0.08596   0.08605   0.08756
     Eigenvalues ---    0.08895   0.08920   0.09002   0.09302   0.09467
     Eigenvalues ---    0.10495   0.10513   0.10561   0.10601   0.10633
     Eigenvalues ---    0.10785   0.10993   0.11310   0.12049   0.12225
     Eigenvalues ---    0.12262   0.12542   0.15590   0.15661   0.15669
     Eigenvalues ---    0.15868   0.18561   0.18708   0.18793   0.18838
     Eigenvalues ---    0.20773   0.20819   0.20942   0.20999   0.22794
     Eigenvalues ---    0.23097   0.23310   0.23413   0.24235   0.25007
     Eigenvalues ---    0.26180   0.26391   0.30762   0.30882   0.30983
     Eigenvalues ---    0.31093   0.41260   0.42541   0.42687   0.43250
     Eigenvalues ---    0.46518   0.47194   0.47373   0.47685   0.53204
     Eigenvalues ---    0.53415   0.53568   0.54225   0.59118   0.59702
     Eigenvalues ---    0.61225   0.62423   0.67018   0.67223   0.68134
     Eigenvalues ---    0.68301   0.72234   0.72323   0.74868   0.75040
     Eigenvalues ---    0.75407   0.76611   0.77097   0.77834   0.78418
     Eigenvalues ---    0.78791   0.79000   0.81294   0.82264   0.82493
     Eigenvalues ---    0.83117   0.83665   0.84104   0.84458   0.84868
     Eigenvalues ---    0.85407   0.89715   0.89977   0.90538   0.91048
     Eigenvalues ---    1.47497   1.56010   1.78428   1.83856
 RFO step:  Lambda=-5.04415081D-03 EMin=-4.47047219D-04
 Linear search not attempted -- first point.
 Maximum step size (   0.300) exceeded in Quadratic search.
    -- Step size scaled by   0.332
 B after Tr=     0.000231   -0.001352   -0.004788
         Rot=    1.000000    0.000081    0.000028   -0.000023 Ang=   0.01 deg.
 Variable       Old X    -DE/DX   Delta X   Delta X   Delta X     New X
                                 (Linear)    (Quad)   (Total)
    X1       -0.05278   0.00121   0.00000   0.01293   0.01326  -0.03952
    Y1       -1.47854  -0.00151   0.00000  -0.01463  -0.01606  -1.49461
    Z1       -0.44278  -0.00102   0.00000  -0.03678  -0.04132  -0.48410
    X2        3.75201  -0.00040   0.00000   0.01985   0.02024   3.77226
    Y2        0.94397  -0.00025   0.00000   0.00404   0.00228   0.94625
    Z2       -3.57850   0.00017   0.00000  -0.01985  -0.02459  -3.60308
    X3        1.02419  -0.00014   0.00000   0.02069   0.02133   1.04553
    Y3       -6.63668   0.00065   0.00000  -0.02533  -0.02695  -6.66363
    Z3       -1.92854   0.00013   0.00000  -0.01732  -0.02096  -1.94950
    X4       -0.90930  -0.03553   0.00000   0.00187   0.00189  -0.90741
    Y4        3.47180  -0.02858   0.00000  -0.03461  -0.03584   3.43596
    Z4        1.09075   0.00420   0.00000  -0.08408  -0.08948   1.00127
    X5        0.82082   0.04612   0.00000   0.00404   0.00400   0.82482
    Y5        4.90624   0.03312   0.00000   0.00156   0.00039   4.90663
    Z5        0.85824  -0.00041   0.00000  -0.02017  -0.02571   0.83253
    X6        2.96904  -0.00518   0.00000  -0.02106  -0.02117   2.94787
    Y6        4.81631  -0.00081   0.00000  -0.01695  -0.01780   4.79851
    Z6        2.26590  -0.00311   0.00000  -0.00607  -0.01147   2.25443
    X7        0.86389  -0.00208   0.00000  -0.00679  -0.00683   0.85706
    Y7        6.85595   0.00041   0.00000   0.03176   0.03032   6.88626
    Z7       -0.80064  -0.00167   0.00000   0.01823   0.01236  -0.78827
    X8        4.63130  -0.00502   0.00000  -0.01879  -0.01897   4.61234
    Y8        6.93248  -0.00001   0.00000  -0.00334  -0.00422   6.92826
    Z8        1.57907   0.00157   0.00000   0.03818   0.03252   1.61160
    X9        3.38537  -0.00173   0.00000  -0.01179  -0.01188   3.37349
    Y9        7.95030  -0.00678   0.00000   0.04018   0.03886   7.98916
    Z9       -0.84658   0.00168   0.00000   0.05359   0.04769  -0.79889
   X10        7.30292   0.00327   0.00000  -0.01609  -0.01620   7.28672
   Y10        5.98646   0.00455   0.00000   0.00122   0.00041   5.98687
   Z10        1.27464  -0.00658   0.00000   0.02179   0.01644   1.29108
   X11        3.19689  -0.00024   0.00000  -0.01618  -0.01636   3.18053
   Y11       10.01494   0.00387   0.00000   0.04452   0.04318  10.05812
   Z11       -0.89308   0.00016   0.00000   0.09747   0.09122  -0.80186
   X12        4.34000   0.00063   0.00000   0.00103   0.00107   4.34107
   Y12        7.25456  -0.00004   0.00000   0.08212   0.08055   7.33512
   Z12       -2.57326  -0.00063   0.00000   0.04272   0.03698  -2.53628
   X13        7.39384  -0.00013   0.00000  -0.01942  -0.01938   7.37445
   Y13        4.56193   0.00068   0.00000   0.01945   0.01839   4.58033
   Z13       -0.26250   0.00109   0.00000   0.00627   0.00115  -0.26136
   X14        7.99791   0.00124   0.00000  -0.01514  -0.01531   7.98259
   Y14        5.14238  -0.00177   0.00000  -0.02452  -0.02502   5.11736
   Z14        3.04068   0.00375   0.00000   0.01400   0.00883   3.04951
   X15        8.55725  -0.00215   0.00000  -0.01784  -0.01800   8.53924
   Y15        7.60384  -0.00336   0.00000   0.00309   0.00226   7.60610
   Z15        0.77190   0.00111   0.00000   0.04267   0.03712   0.80902
   X16        4.46801   0.00082   0.00000  -0.01745  -0.01777   4.45024
   Y16        8.31650  -0.00047   0.00000  -0.03393  -0.03456   8.28194
   Z16        3.14893  -0.00067   0.00000   0.06340   0.05751   3.20643
   X17       -3.39888   0.02953   0.00000   0.02805   0.02814  -3.37074
   Y17       -1.46112   0.00908   0.00000   0.03466   0.03374  -1.42738
   Z17        3.67348   0.01192   0.00000  -0.04575  -0.05049   3.62298
   X18       -5.42484  -0.03703   0.00000   0.00662   0.00678  -5.41805
   Y18       -2.08331  -0.01052   0.00000   0.01368   0.01255  -2.07076
   Z18        2.86747  -0.01360   0.00000  -0.01415  -0.01890   2.84857
   X19       -7.67648   0.00246   0.00000   0.02588   0.02595  -7.65053
   Y19       -1.42657   0.00064   0.00000   0.02236   0.02129  -1.40528
   Z19        3.89229   0.00068   0.00000   0.00845   0.00346   3.89575
   X20       -5.73388   0.00117   0.00000  -0.00677  -0.00642  -5.74030
   Y20       -3.55800   0.00032   0.00000  -0.00796  -0.00945  -3.56744
   Z20        0.77783   0.00058   0.00000   0.00872   0.00419   0.78202
   X21       -9.72211   0.00221   0.00000   0.01147   0.01168  -9.71043
   Y21       -2.75152  -0.00070   0.00000   0.01451   0.01313  -2.73838
   Z21        2.54820   0.00183   0.00000   0.03647   0.03158   2.57978
   X22       -8.39736   0.00207   0.00000  -0.01155  -0.01116  -8.40852
   Y22       -3.59776   0.00209   0.00000  -0.00927  -0.01098  -3.60874
   Z22        0.10911   0.00114   0.00000   0.03235   0.02768   0.13679
   X23      -11.95422  -0.00149   0.00000   0.01178   0.01193 -11.94228
   Y23       -1.01063  -0.00120   0.00000   0.01678   0.01525  -0.99537
   Z23        2.18745  -0.00259   0.00000   0.03774   0.03244   2.21989
   X24       -8.89711  -0.00031   0.00000  -0.02116  -0.02065  -8.91777
   Y24       -5.52664  -0.00208   0.00000  -0.01547  -0.01730  -5.54394
   Z24       -0.48479  -0.00031   0.00000   0.05384   0.04946  -0.43533
   X25       -8.68289  -0.00022   0.00000  -0.02379  -0.02337  -8.70627
   Y25       -2.24955   0.00038   0.00000  -0.02081  -0.02279  -2.27234
   Z25       -1.46656   0.00023   0.00000   0.02447   0.01956  -1.44700
   X26      -11.43042   0.00011   0.00000   0.00686   0.00700 -11.42342
   Y26        0.64315   0.00034   0.00000   0.00589   0.00419   0.64734
   Z26        1.02106  -0.00088   0.00000   0.01884   0.01331   1.03436
   X27      -12.70053  -0.00028   0.00000   0.02871   0.02873 -12.67180
   Y27       -0.33928  -0.00013   0.00000   0.03059   0.02932  -0.30996
   Z27        4.01499   0.00199   0.00000   0.04155   0.03610   4.05109
   X28      -13.48643   0.00114   0.00000   0.00296   0.00321 -13.48322
   Y28       -2.06029   0.00119   0.00000   0.01453   0.01277  -2.04752
   Z28        1.20840   0.00060   0.00000   0.05784   0.05263   1.26103
   X29      -10.22812   0.00027   0.00000   0.01755   0.01776 -10.21036
   Y29       -4.39603   0.00075   0.00000   0.02628   0.02508  -4.37095
   Z29        3.75330  -0.00113   0.00000   0.05250   0.04785   3.80114
   X30        2.91711  -0.00010   0.00000  -0.00725  -0.00715   2.90997
   Y30       -1.06889   0.00010   0.00000  -0.00900  -0.00970  -1.07859
   Z30        3.20634   0.00049   0.00000  -0.01876  -0.02321   3.18313
   X31        5.23084  -0.00006   0.00000  -0.00729  -0.00718   5.22366
   Y31       -1.33702  -0.00056   0.00000  -0.00784  -0.00843  -1.34545
   Z31        3.20639  -0.00180   0.00000  -0.01183  -0.01611   3.19028
   X32        6.45542   0.00051   0.00000  -0.00005   0.00022   6.45564
   Y32       -3.06092   0.00100   0.00000  -0.00613  -0.00689  -3.06781
   Z32        1.81283   0.00165   0.00000  -0.00569  -0.00962   1.80321
   X33        6.76992   0.00072   0.00000  -0.01319  -0.01322   6.75670
   Y33        0.07725   0.00065   0.00000  -0.00820  -0.00849   0.06876
   Z33        4.64185   0.00062   0.00000  -0.00332  -0.00774   4.63411
   X34        9.19495   0.00191   0.00000  -0.00050  -0.00026   9.19469
   Y34       -2.64947   0.00111   0.00000  -0.00315  -0.00374  -2.65322
   Z34        2.08238   0.00038   0.00000   0.00185  -0.00199   2.08039
   X35        9.33296  -0.00414   0.00000  -0.01434  -0.01432   9.31865
   Y35       -0.91671  -0.00509   0.00000  -0.00873  -0.00893  -0.92564
   Z35        4.42572   0.00093   0.00000   0.00414   0.00003   4.42575
   X36       10.23222  -0.00105   0.00000   0.00373   0.00405  10.23628
   Y36       -1.50545   0.00394   0.00000   0.00143   0.00049  -1.50496
   Z36       -0.32726   0.00094   0.00000   0.00523   0.00127  -0.32600
   X37        9.76011   0.00011   0.00000  -0.01628  -0.01630   9.74381
   Y37       -1.95866   0.00118   0.00000  -0.00740  -0.00730  -1.96596
   Z37        6.19358  -0.00150   0.00000   0.00321  -0.00072   6.19286
   X38       10.63107   0.00125   0.00000  -0.01309  -0.01312  10.61795
   Y38        0.69185   0.00184   0.00000  -0.00580  -0.00598   0.68586
   Z38        4.19466  -0.00053   0.00000   0.00915   0.00485   4.19951
   X39        9.35562   0.00073   0.00000   0.00398   0.00423   9.35985
   Y39        0.36279  -0.00119   0.00000  -0.00031  -0.00135   0.36144
   Z39       -0.70685   0.00047   0.00000   0.00535   0.00103  -0.70583
   X40        9.84733  -0.00037   0.00000   0.01133   0.01180   9.85912
   Y40       -2.74486  -0.00224   0.00000  -0.00165  -0.00287  -2.74773
   Z40       -1.95379  -0.00244   0.00000   0.00179  -0.00200  -1.95578
   X41       12.30219   0.00046   0.00000   0.00358   0.00388  12.30607
   Y41       -1.25975  -0.00018   0.00000   0.00156   0.00075  -1.25900
   Z41       -0.14848   0.00025   0.00000   0.01310   0.00921  -0.13927
   X42       10.02687  -0.00025   0.00000  -0.00182  -0.00152  10.02535
   Y42       -4.52625  -0.00055   0.00000  -0.00399  -0.00449  -4.53074
   Z42        2.45908   0.00035   0.00000   0.00273  -0.00075   2.45833
   X43       -3.57852   0.00225   0.00000  -0.01302  -0.01260  -3.59111
   Y43        0.40263  -0.00389   0.00000  -0.01949  -0.02161   0.38101
   Z43       -3.68168  -0.00180   0.00000  -0.01591  -0.02097  -3.70264
   X44       -4.65264  -0.00280   0.00000  -0.00737  -0.00708  -4.65972
   Y44        2.25274   0.00500   0.00000  -0.01290  -0.01492   2.23782
   Z44       -2.80991   0.00214   0.00000  -0.01707  -0.02248  -2.83239
   X45       -6.27984   0.00028   0.00000  -0.00601  -0.00583  -6.28568
   Y45        2.14420  -0.00054   0.00000  -0.00643  -0.00821   2.13599
   Z45       -0.84764  -0.00009   0.00000  -0.01640  -0.02189  -0.86953
   X46       -4.36088   0.00026   0.00000  -0.00269  -0.00246  -4.36334
   Y46        4.61492  -0.00092   0.00000  -0.01667  -0.01883   4.59609
   Z46       -3.70675  -0.00022   0.00000  -0.02324  -0.02903  -3.73578
   X47       -7.23005   0.00032   0.00000   0.00498   0.00502  -7.22504
   Y47        4.69026  -0.00038   0.00000  -0.00250  -0.00423   4.68603
   Z47       -0.27293  -0.00018   0.00000  -0.01672  -0.02268  -0.29561
   X48       -5.59809  -0.00040   0.00000   0.00302   0.00308  -5.59501
   Y48        6.37252   0.00065   0.00000  -0.00924  -0.01118   6.36134
   Z48       -2.00285  -0.00071   0.00000  -0.02615  -0.03228  -2.03513
   X49       -6.96020   0.00042   0.00000   0.01770   0.01755  -6.94265
   Y49        5.20466   0.00039   0.00000   0.00166   0.00040   5.20506
   Z49        2.52730  -0.00008   0.00000  -0.01842  -0.02445   2.50285
   X50       -6.71841   0.00019   0.00000   0.00219   0.00225  -6.71616
   Y50        7.70831  -0.00006   0.00000  -0.01116  -0.01333   7.69498
   Z50       -3.15021   0.00032   0.00000  -0.02698  -0.03339  -3.18361
   X51       -4.09942   0.00004   0.00000   0.00584   0.00579  -4.09363
   Y51        7.38843   0.00020   0.00000  -0.00761  -0.00931   7.37912
   Z51       -0.95635   0.00027   0.00000  -0.03130  -0.03752  -0.99387
   X52       -4.94912  -0.00050   0.00000   0.01878   0.01861  -4.93051
   Y52        5.06358   0.00005   0.00000  -0.00396  -0.00504   5.05854
   Z52        3.08866   0.00002   0.00000  -0.02529  -0.03118   3.05748
   X53       -8.07867  -0.00009   0.00000   0.01784   0.01769  -8.06098
   Y53        3.83592  -0.00019   0.00000   0.00693   0.00580   3.84172
   Z53        3.64184   0.00015   0.00000  -0.01133  -0.01719   3.62465
   X54       -7.65989   0.00008   0.00000   0.02528   0.02502  -7.63487
   Y54        7.13389  -0.00021   0.00000   0.00414   0.00292   7.13681
   Z54        2.94735   0.00010   0.00000  -0.01813  -0.02451   2.92284
   X55       -9.23779  -0.00009   0.00000   0.00226   0.00232  -9.23547
   Y55        4.70119   0.00004   0.00000   0.00342   0.00150   4.70269
   Z55       -0.86980   0.00004   0.00000  -0.00775  -0.01383  -0.88363
         Item               Value     Threshold  Converged?
 Maximum Force            0.046121     0.000450     NO 
 RMS     Force            0.007202     0.000300     NO 
 Maximum Displacement     0.091220     0.001800     NO 
 RMS     Displacement     0.023153     0.001200     NO 
 Predicted change in Energy=-1.424496D-03
 GradGradGradGradGradGradGradGradGradGradGradGradGradGradGradGradGradGrad

 Stoichiometry    C16H24Br2O12Pb
 Framework group  C1[X(C16H24Br2O12Pb)]
 Deg. of freedom   159
 Full point group                 C1      NOp   1
 Largest Abelian subgroup         C1      NOp   1
 Largest concise Abelian subgroup C1      NOp   1
                         Standard orientation:                         
 ---------------------------------------------------------------------
 Center     Atomic      Atomic             Coordinates (Angstroms)
 Number     Number       Type             X           Y           Z
 ---------------------------------------------------------------------
      1         82           0       -0.021982   -0.788216   -0.244520
      2         35           0        1.992604    0.503684   -1.897889
      3         35           0        0.559618   -3.524362   -1.011521
      4          8           0       -0.488345    1.822073    0.533485
      5          6           0        0.426348    2.602402    0.442310
      6          8           0        1.549593    2.550329    1.195456
      7          8           0        0.441134    3.647454   -0.418499
      8          6           0        2.427653    3.678588    0.852345
      9          6           0        1.771270    4.234491   -0.425219
     10          6           0        3.844237    3.183568    0.684906
     11          1           0        1.666342    5.329063   -0.430112
     12          1           0        2.284628    3.886961   -1.343318
     13          1           0        3.892980    2.436927   -0.134356
     14          1           0        4.213202    2.727174    1.616978
     15          1           0        4.504962    4.041364    0.427574
     16          1           0        2.339619    4.397216    1.694112
     17          8           0       -1.785937   -0.750688    1.927890
     18          6           0       -2.868250   -1.095164    1.518584
     19          8           0       -4.050800   -0.744397    2.071102
     20          8           0       -3.036200   -1.890872    0.427302
     21          6           0       -5.138691   -1.454724    1.376307
     22          6           0       -4.447933   -1.917380    0.085246
     23          6           0       -6.322013   -0.535979    1.182535
     24          1           0       -4.714629   -2.943032   -0.214578
     25          1           0       -4.606901   -1.213102   -0.755045
     26          1           0       -6.049372    0.332133    0.552719
     27          1           0       -6.709463   -0.171378    2.150289
     28          1           0       -7.135755   -1.096363    0.676401
     29          1           0       -5.401336   -2.317386    2.025073
     30          8           0        1.537296   -0.558257    1.696184
     31          6           0        2.762008   -0.696309    1.700984
     32          8           0        3.416643   -1.608250    0.970020
     33          8           0        3.570954    0.056423    2.463176
     34          6           0        4.865447   -1.384687    1.116741
     35          6           0        4.928080   -0.466625    2.355145
     36          6           0        5.415691   -0.779446   -0.158210
     37          1           0        5.154024   -1.013765    3.292009
     38          1           0        5.613502    0.387551    2.233210
     39          1           0        4.949464    0.206407   -0.362381
     40          1           0        5.218224   -1.440177   -1.018784
     41          1           0        6.510592   -0.646174   -0.059256
     42          1           0        5.307471   -2.376494    1.319915
     43          8           0       -1.903115    0.194387   -1.951563
     44          6           0       -2.471350    1.176879   -1.494256
     45          8           0       -3.332137    1.123876   -0.455812
     46          8           0       -2.317489    2.423786   -1.975960
     47          6           0       -3.832844    2.472918   -0.156381
     48          6           0       -2.972105    3.358919   -1.079123
     49          6           0       -3.684847    2.752384    1.323746
     50          1           0       -3.566905    4.061301   -1.689263
     51          1           0       -2.179267    3.901193   -0.529340
     52          1           0       -2.620016    2.678466    1.617986
     53          1           0       -4.275075    2.031189    1.919241
     54          1           0       -4.053892    3.774331    1.542763
     55          1           0       -4.896587    2.478065   -0.468086
 ---------------------------------------------------------------------
 Rotational constants (GHZ):           0.1243323           0.0811917           0.0629919
 Basis read from rwf:  (5D, 7F)
 Pseudo-potential data read from rwf file.
 There are   564 symmetry adapted cartesian basis functions of A   symmetry.
 There are   536 symmetry adapted basis functions of A   symmetry.
   536 basis functions,  1128 primitive gaussians,   564 cartesian basis functions
   117 alpha electrons      117 beta electrons
       nuclear repulsion energy      3318.6476316202 Hartrees.
 NAtoms=   55 NActive=   55 NUniq=   55 SFac= 1.00D+00 NAtFMM=   60 NAOKFM=F Big=F
 Integral buffers will be    131072 words long.
 Raffenetti 2 integral format.
 Two-electron integral symmetry is turned on.
 Nuclear repulsion after empirical dispersion term =     3318.5752615448 Hartrees.
 ------------------------------------------------------------------------------
 Polarizable Continuum Model (PCM)
 =================================
 Model                : PCM.
 Atomic radii         : UFF (Universal Force Field).
 Polarization charges : Total charges.
 Charge compensation  : None.
 Solution method      : Matrix inversion.
 Cavity type          : Scaled VdW (van der Waals Surface) (Alpha=1.100).
 Cavity algorithm     : GePol (No added spheres)
                        Default sphere list used, NSphG=   55.
                        Lebedev-Laikov grids with approx.  5.0 points / Ang**2.
                        Smoothing algorithm: York/Karplus (Gamma=1.0000).
                        Polarization charges: spherical gaussians, with
                                              point-specific exponents (IZeta= 3).
                        Self-potential: point-specific (ISelfS= 7).
                        Self-field    : sphere-specific E.n sum rule (ISelfD= 2).
 1st derivatives      : Analytical E(r).r(x)/FMM algorithm (CHGder, D1EAlg=3).
                        Cavity 1st derivative terms included.
 Solvent              : Water, Eps=  64.000000 Eps(inf)=   1.777849
 ------------------------------------------------------------------------------
 One-electron integrals computed using PRISM.
   1 Symmetry operations used in ECPInt.
 ECPInt:  NShTT=   31878 NPrTT=  245289 LenC2=   26125 LenP2D=   99313.
 LDataN:  DoStor=T MaxTD1= 6 Len=  172
 NBasis=   536 RedAO= T EigKep=  3.18D-03  NBF=   536
 NBsUse=   536 1.00D-06 EigRej= -1.00D+00 NBFU=   536
 Defaulting to unpruned grid for atomic number  82.
 Initial guess from the checkpoint file:  "01-PbBr2_pc.chk"
 B after Tr=     0.000000   -0.000000    0.000000
         Rot=    0.999998    0.001324    0.000351   -0.001478 Ang=   0.23 deg.
 ExpMin= 5.98D-02 ExpMax= 1.17D+04 ExpMxC= 4.01D+02 IAcc=3 IRadAn=         5 AccDes= 0.00D+00
 Harris functional with IExCor= 1009 and IRadAn=       5 diagonalized for initial guess.
 HarFok:  IExCor= 1009 AccDes= 0.00D+00 IRadAn=         5 IDoV= 1 UseB2=F ITyADJ=14
 ICtDFT=  3500011 ScaDFX=  1.000000  1.000000  1.000000  1.000000
 Defaulting to unpruned grid for atomic number  82.
 FoFCou: FMM=F IPFlag=           0 FMFlag=      100000 FMFlg1=           0
         NFxFlg=           0 DoJE=T BraDBF=F KetDBF=T FulRan=T
         wScrn=  0.000000 ICntrl=       500 IOpCl=  0 I1Cent=   200000004 NGrid=           0
         NMat0=    1 NMatS0=      1 NMatT0=    0 NMatD0=    1 NMtDS0=    0 NMtDT0=    0
 Petite list used in FoFCou.
 Requested convergence on RMS density matrix=1.00D-08 within 128 cycles.
 Requested convergence on MAX density matrix=1.00D-06.
 Requested convergence on             energy=1.00D-06.
 No special actions if energy rises.
 Defaulting to unpruned grid for atomic number  82.
 Defaulting to unpruned grid for atomic number  82.
 Defaulting to unpruned grid for atomic number  82.
 Defaulting to unpruned grid for atomic number  82.
 Inv3:  Mode=1 IEnd=    54493932.
 Iteration    1 A*A^-1 deviation from unit magnitude is 3.11D-15 for      4.
 Iteration    1 A*A^-1 deviation from orthogonality  is 2.33D-15 for   3394   1462.
 Iteration    1 A^-1*A deviation from unit magnitude is 2.89D-15 for    731.
 Iteration    1 A^-1*A deviation from orthogonality  is 3.07D-14 for   2966   2945.
 Error on total polarization charges =  0.01492
 SCF Done:  E(RPBE-PBE) =  -1555.36657669     A.U. after   10 cycles
            NFock= 10  Conv=0.38D-08     -V/T= 2.0193
   1 Symmetry operations used in ECPInt.
 ECPInt:  NShTT=   31878 NPrTT=  245289 LenC2=   26125 LenP2D=   99313.
 LDataN:  DoStor=T MaxTD1= 7 Len=  274
 D1PCM: PCM CHGder 1st derivatives, ID1Alg=3 FixD1E=F DoIter=F DoCFld=F I1PDM=0.
 Calling FoFJK, ICntrl=      2527 FMM=F ISym2X=0 I1Cent= 0 IOpClX= 0 NMat=1 NMatS=1 NMatT=0.
 Defaulting to unpruned grid for atomic number  82.
 Defaulting to unpruned grid for atomic number  82.
 Defaulting to unpruned grid for atomic number  82.
 Defaulting to unpruned grid for atomic number  82.
 ***** Axes restored to original set *****
 -------------------------------------------------------------------
 Center     Atomic                   Forces (Hartrees/Bohr)
 Number     Number              X              Y              Z
 -------------------------------------------------------------------
      1       82           0.000811004   -0.001008853   -0.000707766
      2       35          -0.000247670   -0.000169496    0.000095327
      3       35          -0.000073467    0.000429550    0.000067239
[...]
 9,-0.00000012,0.00000028,-0.00000195,0.00000036,0.00000069,-0.00000263
 ,0.00000101,-0.00000007,-0.00005693,0.00002678,-0.00008773,-0.00003442
 ,-0.00011258,-0.00008714,0.00089608,0.00109241,0.00282879,0.00017158,0
 .00007606,0.00013802,-0.03267279,0.00290006,-0.01250479,-0.00171300,-0
 .00116984,0.00153153,-0.06269830,0.00506970,-0.05930558,0.00006353,0.0
 0003928,0.00033381,0.00070669,0.00073016,0.00007772,0.07369685,-0.0054
 0668,0.06846127,-0.00012021,-0.00010270,0.00003882,0.00001971,0.000034
 83,-0.00000586,-0.00000207,0.00000082,-0.00000037,-0.00066857,0.000112
 96,0.00026053,0.00058482,0.00048224,-0.00000728,-0.00022881,-0.0001053
 7,-0.00010292,-0.00006973,-0.00016071,0.00007770,0.00004749,0.00004511
 ,-0.00003274,0.00006452,0.00003512,-0.00000019,-0.00000318,-0.00001283
 ,-0.00000227,-0.00000943,-0.00000935,0.00000246,-0.00001923,-0.0000054
 4,0.00000167,0.00000063,0.00000154,-0.00000037,-0.00000321,0.00000358,
 -0.00000035,-0.00000761,0.00000080,0.00000174,-0.00001243,-0.00001885,
 0.00000333,0.00027510,-0.00004171,0.00000674,-0.00100405,0.00052611,0.
 00039737,0.00016439,-0.00089288,-0.00026711,0.00001437,-0.00014996,-0.
 00028325,0.00053056,0.00005014,0.00021191,0.00007220,-0.00001949,0.000
 00113,-0.00001387,-0.00007310,0.00000316,0.00000781,-0.00001135,-0.000
 02594,-0.00001263,0.00001406,0.00000169,-0.00015242,-0.00017508,-0.000
 15710,-0.00002985,0.00001342,0.00002937,-0.00003611,0.00005662,-0.0000
 1018,-0.00010699,-0.00003950,-0.00003975,0.00001090,0.00000919,0.00000
 344,-0.00000710,-0.00000333,0.00000086,0.00000114,-0.00000082,0.000000
 35,0.00000384,0.00000382,0.00000004,-0.00000111,-0.00000057,0.00000066
 ,0.00000088,0.00000008,0.00000024,0.00000028,-0.00000030,0.00000026,-0
 .00000018,0.00000018,-0.00000009,0.00000060,-0.00000036,0.00000010,0.0
 0000010,-0.00000043,-0.00000055,-0.00000011,0.00000021,-0.00000004,0.0
 0000001,0.00000006,-0.00000003,0.00000016,0.00000014,0.,0.00009829,-0.
 00004799,-0.00008910,-0.00039707,0.00010710,0.00020892,0.00024648,-0.0
 0042873,0.00008547,0.00070837,0.00012287,-0.00056885,0.00052030,0.0044
 0430,-0.00294820,0.00068478,-0.00142689,-0.00034476,-0.12026868,-0.096
 23621,0.07492563,-0.00010775,0.00008569,0.00038792,0.00027707,0.000324
 11,-0.00001169,-0.01191688,-0.01826714,0.01489631,0.12545090,0.0002188
 5,-0.00002880,-0.00008155,-0.00004461,-0.00002979,0.00003110,-0.000008
 41,0.00004243,0.00001119,0.00000468,-0.00006756,-0.00001284,0.00000964
 ,0.00000254,0.00000098,-0.00001095,-0.00000227,0.00000280,-0.00001495,
 -0.00000895,0.00000371,0.00000293,0.00000486,0.00000143,0.00000372,0.0
 0000049,-0.00000070,-0.00000121,-0.00000083,0.00000012,-0.00000022,-0.
 00000072,-0.00000047,-0.00000044,0.00000100,-0.00000058,0.00000122,0.0
 0000043,0.00000032,-0.00000015,0.00000045,-0.00000017,-0.00000052,-0.0
 0000043,-0.00000013,0.00000012,-0.00000068,-0.00000032,-0.00056571,0.0
 0001343,-0.00002918,0.00166433,-0.00052195,-0.00042142,-0.00061081,-0.
 00008124,0.00035964,-0.00011718,0.00025888,0.00035020,-0.00052920,-0.0
 0033075,-0.00019356,-0.00006707,0.00001373,-0.00005231,-0.00004049,-0.
 00009227,0.00002730,-0.00001536,0.00002329,0.00003397,0.00000912,-0.00
 002535,-0.00000211,-0.00020631,-0.00012514,-0.00013584,-0.00003221,-0.
 00001365,-0.00001296,0.00003960,0.00001492,-0.00001679,0.00007638,0.00
 007081,0.00001457,-0.00004912,0.00000498,-0.00002003,0.00005215,-0.000
 00704,-0.00000043,-0.00001414,0.00000786,0.00000361,-0.00001920,-0.000
 00546,-0.00000542,0.00000656,0.00000108,0.00000012,0.00000394,-0.00000
 320,0.00000003,-0.00000207,-0.00000056,-0.00000077,-0.00000110,0.00000
 070,-0.00000022,-0.00000133,0.00000019,0.00000008,0.00000098,0.0000006
 7,0.00000023,0.00000042,-0.00000035,0.00000010,-0.00000072,0.00000010,
 0.00000025,-0.00000117,0.00000023,-0.00000004,-0.00025523,0.00012355,0
 .00014669,0.00047747,0.00031117,-0.00045504,-0.00036106,0.00131795,0.0
 0089857,0.00046045,-0.00030469,-0.00023207,0.00455453,0.00287431,-0.00
 570656,-0.00029508,0.00040216,-0.00163453,-0.09654927,-0.15656454,0.09
 461469,0.00008212,0.00010970,-0.00014754,0.00010408,0.00001826,-0.0000
 2362,0.00257800,0.00131574,-0.00219439,0.10395696,0.16621636,0.0000192
 7,0.00004035,-0.00013773,-0.00001272,-0.00001298,0.00001457,-0.0000029
 2,0.00000328,-0.00000316,-0.00009888,0.00000769,0.00011974,0.00003961,
 0.00011129,-0.00004756,-0.00000800,-0.00001829,-0.00000482,0.00004128,
 -0.00002798,0.00002664,0.00001056,0.00000339,-0.00000896,-0.00000895,-
 0.00001692,0.00001209,0.00000019,-0.00000119,0.00000303,-0.00000016,0.
 00000076,-0.00000020,0.00000140,0.00000098,-0.00000074,0.00000028,0.00
 000046,-0.00000008,0.00000097,-0.00000044,-0.00000016,-0.00000049,0.,-
 0.00000019,-0.00000115,-0.00000244,0.00000208,-0.00034317,-0.00000880,
 0.00001190,0.00096394,-0.00036453,-0.00036127,-0.00051644,0.00085304,0
 .00000008,-0.00007125,0.00008937,0.00020603,-0.00011278,-0.00030394,-0
 .00010663,-0.00000306,-0.00003607,-0.00006638,0.00004524,-0.00020596,0
 .00037265,-0.00001011,0.00001935,0.00001004,0.00002605,-0.00000635,-0.
 00001341,-0.00024867,-0.00005446,-0.00039249,0.00000805,-0.00001147,-0
 .00001281,0.00003983,0.00014856,-0.00008131,0.00000519,0.00005991,-0.0
 0000933,0.00000714,0.00000129,0.00000802,-0.00000254,0.00000150,0.0000
 0350,-0.00000013,-0.00000023,-0.00000029,0.00000160,0.00000006,-0.0000
 0023,0.00000011,0.00000001,0.00000008,0.00000017,0.00000049,-0.0000000
 8,-0.00000017,-0.00000013,-0.00000003,-0.00000004,0.,0.00000002,0.0000
 0014,-0.00000010,-0.00000002,0.00000017,0.00000005,0.00000005,0.000000
 02,0.,-0.00000003,-0.00000005,0.00000008,-0.00000003,0.,-0.00000001,-0
 .00000002,-0.00002423,-0.00045989,0.00005760,0.00049384,0.00189766,-0.
 00064097,-0.00089830,0.00039505,0.00257530,0.00128537,-0.00107684,-0.0
 0150444,0.01782398,0.02190235,-0.01784838,-0.00235041,-0.00256828,-0.0
 0308334,0.07326002,0.09010709,-0.11421661,0.00032895,0.00048274,-0.000
 52105,-0.00005404,-0.00029024,-0.00014004,-0.00442899,-0.00623337,0.00
 383639,-0.08061188,-0.09941624,0.12769563,0.00000539,-0.00012497,-0.00
 003433,-0.00001006,0.00001474,0.00001597,-0.00000770,0.00003251,0.0000
 0963,-0.00081476,-0.00013192,0.00035526,0.00054185,0.00061653,-0.00003
 547,-0.00027048,-0.00013038,-0.00010040,-0.00007168,-0.00022695,0.0001
 0781,0.00005613,0.00005628,-0.00003764,0.00006525,0.00002469,0.0000027
 0,-0.00000452,-0.00001621,-0.00000111,-0.00001286,-0.00001147,0.000003
 36,-0.00001818,-0.00000459,0.00000042,0.00000191,0.00000170,-0.0000005
 8,-0.00000251,0.00000382,-0.00000029,-0.00000885,0.00000070,0.00000184
 ,-0.00001520,-0.00002232,0.00000312,0.00016018,0.00010584,0.00000891,-
 0.00044454,0.00005433,0.00007392,0.00016883,-0.00032805,-0.00002443,0.
 00004129,-0.00001871,-0.00005426,0.00007631,0.00008747,0.00003156,-0.0
 0000171,0.00000501,0.00001674,-0.00002942,0.00003143,-0.00007268,0.000
 00508,-0.00000484,-0.00000360,-0.00000029,0.00000268,0.00000413,0.0000
 4385,-0.00000685,0.00006007,0.00000609,0.00000467,-0.00000023,-0.00000
 986,-0.00002996,0.00001532,-0.00000736,-0.00001658,-0.00000167,-0.0000
 1986,0.00001151,-0.00000704,0.00003009,-0.00000830,0.00000021,-0.00000
 962,0.00000460,0.00000335,-0.00000945,0.00000010,-0.00000319,0.0000038
 9,0.00000049,0.00000047,0.00000402,-0.00000171,-0.00000004,-0.00000123
 ,-0.00000065,-0.00000022,-0.00000091,0.00000065,-0.00000014,-0.0000003
 5,-0.00000030,0.00000021,0.00000083,-0.00000003,-0.00000039,0.00000018
 ,-0.00000005,0.00000005,-0.00000054,0.00000013,0.00000016,-0.00000066,
 0.00000024,0.,0.00014555,-0.00006023,-0.00010919,0.00015499,-0.0002116
 0,-0.00028136,0.00136552,-0.00034534,-0.00064178,0.00006992,-0.0001987
 5,-0.00023545,-0.00200288,-0.00328195,-0.00019481,0.00033022,0.0000139
 2,0.00004710,-0.06924406,0.08285804,0.01696785,-0.00004589,0.00003621,
 0.00004423,-0.00022125,0.00001408,0.00013611,-0.00638481,0.02479219,0.
 00690071,0.00475842,-0.01456098,-0.00448943,0.07150360,-0.00021282,0.0
 0011032,-0.00001905,0.00003904,0.00001603,-0.00002754,0.00000848,-0.00
 004948,-0.00001609,0.00015679,0.00006263,-0.00002530,-0.00019696,-0.00
 014944,0.00000306,0.00007821,0.00003083,0.00002267,0.00003736,0.000056
 86,-0.00001949,-0.00001494,-0.00002078,0.00000595,-0.00002289,-0.00001
 368,0.00000077,0.00000267,0.00000514,0.00000087,0.00000359,0.00000402,
 -0.00000073,0.00000625,0.00000089,-0.00000018,-0.00000161,-0.00000083,
 -0.00000010,0.00000103,-0.00000160,0.00000022,0.00000291,0.00000020,-0
 .00000046,0.00000387,0.00000590,0.00000003,0.00016587,-0.00002100,0.00
 001210,-0.00049136,0.00024134,0.00012282,0.00015549,-0.00047489,-0.000
 05464,0.00001216,-0.00007515,-0.00011472,0.00017021,0.00013426,0.00007
 095,0.00002625,0.00002100,0.00000662,-0.00003008,0.00005241,-0.0001079
 4,0.00000489,-0.00001469,-0.00000301,0.00000370,0.00001698,0.00002051,
 0.00006335,-0.00001502,0.00008523,0.00000802,0.00000813,0.00000142,-0.
 00001505,-0.00003818,0.00002031,-0.00002144,-0.00003206,-0.00000525,0.
 00006208,-0.00000881,0.00003050,-0.00006449,0.00001102,0.00000383,0.00
 001741,-0.00000986,-0.00000505,0.00002387,0.00000571,0.00000635,-0.000
 00785,-0.00000125,-0.00000019,-0.00000524,0.00000424,-0.00000017,0.000
 00237,0.00000067,0.00000081,0.00000137,-0.00000089,0.00000028,0.000001
 61,-0.00000019,-0.00000015,-0.00000112,-0.00000063,-0.00000006,-0.0000
 0044,0.00000034,-0.00000014,0.00000086,-0.00000006,-0.00000034,0.00000
 142,-0.00000031,0.00000001,0.00044721,-0.00037448,-0.00032034,-0.00146
 877,0.00000634,0.00105194,0.00045037,0.00130182,-0.00157572,0.00037681
 ,0.00020643,-0.00029336,0.00193292,-0.00607922,0.00138613,-0.00029214,
 0.00006526,-0.00010948,0.08213707,-0.26382936,-0.04933653,0.00005267,0
 .00007397,-0.00007137,0.00008551,0.00007046,-0.00012590,-0.00145771,-0
 .00041527,0.00022603,0.00715016,-0.01518333,-0.00504849,-0.08917166,0.
 28387626,-0.00024739,0.00014682,-0.00020566,0.00003602,0.00001439,-0.0
 0001326,0.00000495,-0.00004767,-0.00002183,-0.00010349,0.00006315,0.00
 012679,0.00000411,0.00002200,0.00002144,-0.00000498,-0.00000064,-0.000
 01518,0.00000028,-0.00000870,0.00000777,0.00000563,-0.00000269,-0.0000
 0462,0.00000222,-0.00000009,-0.00000152,0.00000139,0.00000076,-0.00000
 063,-0.00000074,-0.00000028,0.00000026,-0.00000093,-0.00000101,0.00000
 040,-0.00000108,-0.00000029,-0.00000013,-0.00000031,-0.00000015,0.0000
 0006,0.00000012,0.00000036,0.00000017,-0.00000129,-0.00000157,0.000000
 96,-0.00010116,0.00003699,0.00005093,0.00031639,-0.00012146,-0.0003228
 7,-0.00011516,0.00038240,0.00008253,-0.00003437,0.00002341,0.00017464,
 -0.00010193,-0.00005738,-0.00007332,-0.00000190,0.00002206,-0.00004977
 ,0.00001805,0.00000312,0.00003507,-0.00000084,-0.00000980,0.00002339,0
 .00003998,0.00003193,0.00002741,0.00001308,0.00000539,-0.00004144,-0.0
 0001133,-0.00001000,0.00000709,0.00000471,0.00001451,-0.00000405,0.000
 01543,0.00001956,0.00001530,0.00008265,-0.00000624,0.00004607,-0.00007
 487,0.00001343,0.00001023,0.00001868,-0.00001124,-0.00000563,0.0000294
 6,0.00000771,0.00000699,-0.00000836,-0.00000143,0.00000006,-0.00000462
 ,0.00000541,-0.00000018,0.00000249,0.00000048,0.00000098,0.00000142,-0
 .00000087,0.00000029,0.00000217,-0.00000056,-0.00000010,-0.00000095,-0
 .00000074,-0.00000021,-0.00000044,0.00000036,-0.00000020,0.00000080,0.
 00000005,-0.00000040,0.00000161,-0.00000028,-0.00000003,0.00155618,-0.
 00053304,-0.00082055,-0.00279620,-0.00233978,0.00221894,0.00174013,-0.
 00241210,-0.00882026,-0.00014686,0.00112798,0.00019471,0.01092571,-0.0
 2671249,-0.00255279,0.00023324,-0.00013515,0.00012738,0.01605496,-0.04
 664514,-0.05226712,0.00010705,0.00005988,-0.00013863,0.00020010,0.0003
 9255,0.00014958,-0.00177990,0.00795164,0.00062361,-0.00637807,0.013982
 72,0.00319877,-0.01898979,0.05439411,0.05729216,0.00045836,-0.00030454
 ,0.00015052,-0.00006912,-0.00002127,0.00005099,-0.00001596,0.00011083,
 0.00004162,-0.00031023,-0.00007644,-0.00006383,0.00041622,0.00017440,0
 .00007935,-0.00019217,-0.00006304,-0.00007656,-0.00016112,-0.00009004,
 0.00003093,0.00002629,0.00004569,-0.00000719,0.00007881,0.00006449,-0.
 00002285,-0.00000643,-0.00001072,-0.00000672,-0.00000783,-0.00001092,0
 .00000146,-0.00001993,-0.00000415,0.00000204,0.00000307,0.00000167,0.0
 0000037,-0.00000433,0.00000471,-0.00000024,-0.00000684,-0.00000044,0.0
 0000143,-0.00000811,-0.00001260,-0.00000130,0.00002888,0.00007266,-0.0
 0004646,-0.00007620,-0.00014037,0.00020773,0.00006832,0.00003660,-0.00
 002489,0.00005541,0.00005280,-0.00006544,-0.00009109,0.00001206,-0.000
 02454,-0.00004373,-0.00002515,0.00006312,-0.00006867,-0.00009429,0.000
 03593,0.00000392,0.00001835,-0.00001818,-0.00004660,-0.00005142,-0.000
 04592,0.00006220,0.00006167,-0.00003913,-0.00000208,-0.00000915,0.0000
 0656,-0.00000556,-0.00002177,0.00001297,0.00001826,-0.00000726,-0.0000
 0227,-0.00014495,0.00001949,-0.00007567,0.00014506,-0.00002795,-0.0000
 1287,-0.00003855,0.00002264,0.00001216,-0.00005414,-0.00001168,-0.0000
 1355,0.00001718,0.00000268,0.00000018,0.00001155,-0.00001007,0.0000004
 1,-0.00000509,-0.00000143,-0.00000170,-0.00000304,0.00000194,-0.000000
 59,-0.00000359,0.00000050,0.00000030,0.00000228,0.00000117,-0.00000010
 ,0.00000091,-0.00000059,0.00000041,-0.00000180,0.00000004,0.00000082,-
 0.00000319,0.00000073,0.,-0.00088676,0.00092282,0.00097575,0.00133872,
 0.00054799,-0.00351715,-0.00842996,0.00849249,0.00292060,-0.00101201,0
 .00000611,0.00090912,-0.27798230,-0.00477598,-0.06984146,-0.01243667,-
 0.00249063,-0.00569671,-0.00143284,-0.00092218,-0.00052201,0.00120013,
 0.00034550,0.00007485,-0.00059262,-0.00094131,0.00211190,0.00130662,-0
 .00019100,-0.00004963,0.00065515,0.00006800,-0.00010440,0.00013212,-0.
 00021730,-0.00051207,0.29813402,-0.00065918,0.00032907,-0.00030479,0.0
 0007576,0.00004653,-0.00004928,0.00001268,-0.00011224,-0.00004527,0.00
 004532,0.00024093,0.00009510,0.00003490,-0.00016039,0.00015322,0.00000
 662,0.00002911,-0.00004408,-0.00009357,0.00006027,-0.00003003,-0.00000
 232,-0.00001091,0.00000254,0.00002803,0.00004251,-0.00002569,0.0000028
 3,0.00000507,-0.00000714,0.00000029,-0.00000186,0.00000041,-0.00000822
 ,-0.00000447,0.00000256,-0.00000238,-0.00000084,-0.00000011,-0.0000030
 7,0.00000066,0.00000021,0.00000100,0.00000035,0.00000050,-0.00000056,0
 .00000018,-0.00000033,-0.00011883,-0.00008964,0.00005925,0.00027207,0.
 00012196,-0.00024910,-0.00019873,0.00002421,0.00004219,-0.00011889,-0.
 00005639,0.00008164,0.00019626,0.00005699,-0.00001707,0.00012288,0.000
 02441,-0.00000197,-0.00007367,-0.00029751,0.00021065,-0.00001172,0.000
 00023,-0.00000090,0.00002947,0.00002571,-0.00000635,-0.00023916,-0.000
 22349,0.00000727,0.00001766,0.00008040,-0.00005613,0.00001784,0.000086
 03,-0.00005416,-0.00007382,0.00002691,-0.00001353,0.00017392,-0.000012
 53,0.00009788,-0.00016122,0.00002546,0.00001719,0.00004014,-0.00002395
 ,-0.00001193,0.00006232,0.00001769,0.00001537,-0.00001816,-0.00000316,
 0.00000010,-0.00000990,0.00001109,-0.00000041,0.00000532,0.00000092,0.
 00000205,0.00000304,-0.00000188,0.00000060,0.00000468,-0.00000118,-0.0
 0000026,-0.00000196,-0.00000149,-0.00000042,-0.00000094,0.00000077,-0.
 00000039,0.00000168,0.00000013,-0.00000094,0.00000348,-0.00000055,-0.0
 0000009,0.00146073,-0.00149252,-0.00320078,-0.00180535,-0.00463765,0.0
 0940377,0.03838691,-0.01351640,-0.00202111,-0.00137211,0.00273592,-0.0
 0015216,-0.01064934,-0.04070573,-0.00029854,-0.01681192,-0.00182007,-0
 .00481994,-0.00645218,0.00191838,-0.00099186,-0.00026229,0.00087093,-0
 .00006418,-0.00216111,-0.00128186,0.00185925,0.00002941,0.00080014,-0.
 00161171,0.00068888,0.00024730,0.00003882,0.00014080,0.00042098,0.0003
 3760,-0.00055431,0.05620549,-0.00016107,0.00005733,-0.00005974,0.00001
 789,0.00001048,-0.00001057,0.00000331,-0.00002600,-0.00001032,-0.00019
 464,-0.00001646,0.00021230,0.00009081,0.00024054,-0.00010139,-0.000017
 33,-0.00002975,0.00000529,0.00009973,-0.00007014,0.00004529,0.00001847
 ,0.00000664,-0.00001693,-0.00001621,-0.00003969,0.00002339,0.00000126,
 -0.00000284,0.00000587,-0.00000223,0.00000158,0.00000003,0.00000433,0.
 00000134,-0.00000088,-0.00000055,0.00000035,-0.00000027,0.00000227,-0.
 00000118,-0.00000017,-0.00000082,0.00000027,-0.00000015,-0.00000175,-0
 .00000325,0.00000341,0.00006206,0.00001617,0.00003385,-0.00011126,0.00
 001984,-0.00008040,0.00008059,0.00000920,0.00002010,0.00002626,-0.0000
 1365,0.00002971,-0.00010562,0.00000641,-0.00001328,-0.00000574,0.00002
 880,0.00001062,0.00002785,0.00012549,-0.00018446,0.00000526,-0.0000108
 7,0.00000414,0.00000464,0.00001936,0.00001838,0.00013880,0.00016316,0.
 00003264,-0.00001718,-0.00003929,0.00003418,-0.00002044,-0.00008044,0.
 00005225,0.00004678,-0.00002631,0.00001240,0.00003830,-0.00000193,0.00
 002385,-0.00003352,0.00000404,0.00000197,0.00000753,-0.00000434,-0.000
 00168,0.00001311,0.00000441,0.00000390,-0.00000345,-0.00000064,-0.0000
 0028,-0.00000144,0.00000240,-0.00000017,0.00000111,0.00000026,0.000000
 49,0.00000062,-0.00000045,0.00000017,0.00000098,-0.00000026,-0.0000001
 4,-0.00000047,-0.00000036,-0.00000017,-0.00000022,0.00000021,-0.000000
 02,0.00000035,-0.00000004,-0.00000015,0.00000070,-0.00000010,0.0000000
 2,0.00012064,-0.00049936,-0.00067024,0.00092859,-0.00030997,0.00053617
 ,0.00920143,-0.00326904,0.00355619,0.00015064,-0.00047768,-0.00116077,
 -0.07327314,0.00013847,-0.06927444,0.01739199,0.00296289,0.00546132,-0
 .02986997,-0.00012677,-0.01023245,-0.00000447,-0.00039229,0.00096938,0
 .00179017,0.00131266,-0.00146186,-0.00038629,-0.00146334,-0.00582442,0
 .00034114,0.00031343,0.00104856,0.00050832,-0.00019175,0.00091642,0.07
 310190,0.00165248,0.07604305\\0.00000153,-0.00000712,-0.00000966,-0.00
 000788,-0.00001547,0.00000124,-0.00000602,0.00000225,0.00001942,-0.000
 15152,-0.00010296,0.00004276,0.00018030,0.00016283,-0.00007933,-0.0000
 0602,0.00000594,0.00000229,0.00000470,-0.00002157,0.00001689,0.0000067
 1,-0.00000380,-0.00001091,0.00001363,0.00001034,0.00000200,-0.00001088
 ,-0.00003272,0.00001862,-0.00000254,-0.00004951,-0.00001468,-0.0000204
 0,0.00001775,0.00001921,0.00000173,0.00001185,0.00000599,-0.00001100,0
 .00000913,-0.00004555,0.00000555,0.00001690,-0.00001100,-0.00000618,-0
 .00000354,-0.00003164,0.00022798,0.00008566,0.00010603,-0.00026309,-0.
 00009893,-0.00008585,0.00000956,0.00001100,-0.00000221,0.00001160,0.00
 001019,-0.00000002,0.00002247,0.00001703,-0.00000262,0.00002113,0.0000
 1354,0.00002440,-0.00000574,-0.00001822,0.00002329,-0.00000750,-0.0000
 0529,-0.00000352,-0.00000137,0.00000169,-0.00002410,0.00000979,0.00002
 116,0.00000428,-0.00001722,0.00003751,-0.00001217,-0.00000375,-0.00002
 325,0.00000700,-0.00001281,-0.00001324,0.00003544,0.00002626,-0.000001
 28,-0.00000576,-0.00001695,0.00000416,0.00001040,-0.00001369,0.0000112
 4,-0.00000622,0.00000324,-0.00001428,-0.00001317,-0.00001110,-0.000008
 25,0.00000374,0.00002833,0.00001419,-0.00000189,-0.00000041,-0.0000194
 7,0.00000455,-0.00000092,0.00000012,0.00000675,0.00001684,-0.00000132,
 0.00000678,-0.00000397,-0.00001595,-0.00000147,0.00000012,0.00002097,0
 .00002619,0.00000077,-0.00000044,0.00000366,-0.00000291,0.00000642,0.0
 0000067,-0.00007047,0.00011893,0.00005628,0.00007477,-0.00016034,-0.00
 007343,-0.00000763,-0.00000106,0.00000786,-0.00000004,0.00001832,0.000
 00222,-0.00001059,0.00000415,0.00000927,0.00000008,0.00000485,0.000004
 46,-0.00000407,-0.00000371,-0.00000753,0.00000320,-0.00001098,-0.00000
 427,0.00000770,-0.00000774,-0.00000922,0.00000490,-0.00000049,-0.00000
 104,-0.00000429,-0.00000128,0.00000109,0.00000125,0.00000585,-0.000009
 91,-0.00000321,-0.00000174,-0.00000560\\\@
 The archive entry for this job was punched.


 DEFINE YOUR TERMS, YOU WILL PERMIT ME AGAIN TO SAY, 
 OR WE SHALL NEVER UNDERSTAND ONE ANOTHER.

                                    -- VOLTAIRE
 Job cpu time:       0 days  3 hours 27 minutes 54.6 seconds.
 Elapsed time:       0 days  0 hours 51 minutes 59.3 seconds.
 File lengths (MBytes):  RWF=   2163 Int=      0 D2E=      0 Chk=     64 Scr=      1
 Normal termination of Gaussian 16 at Sat Nov 21 22:26:17 2020.
