 Entering Gaussian System, Link 0=g16
 Input=01-PbBr2_gbl_22741781.com
 Output=01-PbBr2_gbl_22741781.log
 Initial command:
 /cm/shared/uniol/software/gaussian/g16.c01/g16/l1.exe "/scratch/22741781_edba4025/Gau-1390.inp" -scrdir="/scratch/22741781_edba4025/"
 Entering Link 1 = /cm/shared/uniol/software/gaussian/g16.c01/g16/l1.exe PID=      1391.
  
 Copyright (c) 1988-2019, Gaussian, Inc.  All Rights Reserved.
  
 This is part of the Gaussian(R) 16 program.  It is based on
 the Gaussian(R) 09 system (copyright 2009, Gaussian, Inc.),
 the Gaussian(R) 03 system (copyright 2003, Gaussian, Inc.),
 the Gaussian(R) 98 system (copyright 1998, Gaussian, Inc.),
 the Gaussian(R) 94 system (copyright 1995, Gaussian, Inc.),
 the Gaussian 92(TM) system (copyright 1992, Gaussian, Inc.),
 the Gaussian 90(TM) system (copyright 1990, Gaussian, Inc.),
 the Gaussian 88(TM) system (copyright 1988, Gaussian, Inc.),
 the Gaussian 86(TM) system (copyright 1986, Carnegie Mellon
 University), and the Gaussian 82(TM) system (copyright 1983,
 Carnegie Mellon University). Gaussian is a federally registered
 trademark of Gaussian, Inc.
  
 This software contains proprietary and confidential information,
 including trade secrets, belonging to Gaussian, Inc.
  
 This software is provided under written license and may be
 used, copied, transmitted, or stored only in accord with that
 written license.
  
 The following legend is applicable only to US Government
 contracts under FAR:
  
                    RESTRICTED RIGHTS LEGEND
  
 Use, reproduction and disclosure by the US Government is
 subject to restrictions as set forth in subparagraphs (a)
 and (c) of the Commercial Computer Software - Restricted
 Rights clause in FAR 52.227-19.
  
 Gaussian, Inc.
 340 Quinnipiac St., Bldg. 40, Wallingford CT 06492
  
  
 ---------------------------------------------------------------
 Warning -- This program may not be used in any manner that
 competes with the business of Gaussian, Inc. or will provide
 assistance to any competitor of Gaussian, Inc.  The licensee
 of this program is prohibited from giving any competitor of
 Gaussian, Inc. access to this program.  By using this program,
 the user acknowledges that Gaussian, Inc. is engaged in the
 business of creating and licensing software in the field of
 computational chemistry and represents and warrants to the
 licensee that it is not a competitor of Gaussian, Inc. and that
 it will not use this program in any manner prohibited above.
 ---------------------------------------------------------------
  

 Cite this work as:
 Gaussian 16, Revision C.01,
 M. J. Frisch, G. W. Trucks, H. B. Schlegel, G. E. Scuseria, 
 M. A. Robb, J. R. Cheeseman, G. Scalmani, V. Barone, 
 G. A. Petersson, H. Nakatsuji, X. Li, M. Caricato, A. V. Marenich, 
 J. Bloino, B. G. Janesko, R. Gomperts, B. Mennucci, H. P. Hratchian, 
 J. V. Ortiz, A. F. Izmaylov, J. L. Sonnenberg, D. Williams-Young, 
 F. Ding, F. Lipparini, F. Egidi, J. Goings, B. Peng, A. Petrone, 
 T. Henderson, D. Ranasinghe, V. G. Zakrzewski, J. Gao, N. Rega, 
 G. Zheng, W. Liang, M. Hada, M. Ehara, K. Toyota, R. Fukuda, 
 J. Hasegawa, M. Ishida, T. Nakajima, Y. Honda, O. Kitao, H. Nakai, 
 T. Vreven, K. Throssell, J. A. Montgomery, Jr., J. E. Peralta, 
 F. Ogliaro, M. J. Bearpark, J. J. Heyd, E. N. Brothers, K. N. Kudin, 
 V. N. Staroverov, T. A. Keith, R. Kobayashi, J. Normand, 
 K. Raghavachari, A. P. Rendell, J. C. Burant, S. S. Iyengar, 
 J. Tomasi, M. Cossi, J. M. Millam, M. Klene, C. Adamo, R. Cammi, 
 J. W. Ochterski, R. L. Martin, K. Morokuma, O. Farkas, 
 J. B. Foresman, and D. J. Fox, Gaussian, Inc., Wallingford CT, 2019.
 
 ******************************************
 Gaussian 16:  ES64L-G16RevC.01  3-Jul-2019
                 5-Nov-2020 
 ******************************************
 %Chk=01-PbBr2_gbl
 %mem=16GB
 %NProcShared=8
 Will use up to    8 processors via shared memory.
 ----------------------------------------------------------------------
 # pbepbe/Gen pseudo=read Opt Freq EmpiricalDispersion=GD3BJ SCRF=(read
 )
 ----------------------------------------------------------------------
 1/18=20,19=15,26=3,38=1,40=2/1,3;
 2/9=110,12=2,17=6,18=5,40=1/2;
 3/5=7,11=2,16=1,17=8,25=1,30=1,70=2203,71=1,74=1009,124=41/1,2,3;
 4//1;
 5/5=2,38=5/2;
 6/7=2,8=2,9=2,10=2,28=1/1;
 7//1,2,3,16;
 1/18=20,19=15,26=3/3(2);
 2/9=110/2;
 99//99;
 2/9=110/2;
 3/5=7,6=1,11=2,16=1,17=8,25=1,30=1,70=2205,71=1,74=1009,82=7,124=41/1,2,3;
 4/5=5,16=3,69=1/1;
 5/5=2,38=5/2;
 7//1,2,3,16;
 1/18=20,19=15,26=3/3(-5);
 2/9=110/2;
 6/7=2,8=2,9=2,10=2,19=2,28=1/1;
 99/9=1/99;
 -------------
 PbBr2_GBL.xyz
 -------------
 Symbolic Z-matrix:
 Charge =  0 Multiplicity = 1
 Pb                   -0.38319  -0.44857   0.26968 
 Br                   -1.41247  -1.44432  -2.23465 
 Br                    1.48486  -2.71307   0.75802 
 O                    -1.48233   1.89553  -0.31288 
 C                    -1.01964   3.03969  -0.26726 
 C                     0.3872    3.49401   0.05005 
 O                    -1.81947   4.09381  -0.53098 
 C                     0.20529   4.98398   0.35859 
 C                    -1.03545   5.3337   -0.47072 
 H                    -1.68905   6.10535  -0.02594 
 H                    -0.78887   5.6164   -1.51491 
 H                     1.07646   5.6057    0.08299 
 H                    -0.00151   5.13151   1.43721 
 H                     1.00294   3.30489  -0.85488 
 H                     0.81407   2.87332   0.85906 
 O                     1.2307    0.92602   2.07744 
 C                     2.40967   0.62492   2.26989 
 C                     3.56162   0.58345   1.28592 
 O                     2.827     0.24832   3.50134 
 C                     4.79465   0.56524   2.19463 
 C                     4.24479  -0.12071   3.4505 
 H                     4.70143   0.21347   4.39944 
 H                     4.29275  -1.2275    3.38621 
 H                     5.6562    0.02013   1.76775 
 H                     5.11677   1.59882   2.4316 
 H                     3.44797  -0.36876   0.7212 
 H                     3.50214   1.41728   0.56417 
 O                     1.30544   0.74116  -1.14522 
 C                     2.16386   0.38324  -1.96129 
 C                     2.40058  -0.97203  -2.5796 
 O                     3.0558    1.28703  -2.40716 
 C                     3.82456  -0.84859  -3.13455 
 C                     3.93906   0.65625  -3.39975 
 H                     4.94646   1.08145  -3.24489 
 H                     3.56285   0.9486   -4.40128 
 H                     3.99956  -1.44541  -4.0478 
 H                     4.56091  -1.15889  -2.36655 
 H                     1.63023  -1.10755  -3.36958 
 H                     2.24196  -1.76815  -1.82656 
 O                    -2.72698  -1.1031    1.34527 
 C                    -3.86289  -0.74034   1.02898 
 C                    -4.30808   0.14117  -0.11844 
 O                    -4.92563  -1.15858   1.75225 
 C                    -5.73634   0.53085   0.27775 
 C                    -6.16392  -0.65785   1.14619 
 H                    -6.84854  -0.40357   1.97531 
 H                    -6.59795  -1.48843   0.55203 
 H                    -6.4133    0.67995  -0.58304 
 H                    -5.7275    1.46118   0.87988 
 H                    -4.26739  -0.48426  -1.03732 
 H                    -3.60046   0.97846  -0.26579 
 
 Add virtual bond connecting atoms H51        and O4         Dist= 4.36D+00.
 Add virtual bond connecting atoms O16        and H15        Dist= 4.41D+00.
 Add virtual bond connecting atoms O28        and Pb1        Dist= 4.73D+00.
 Add virtual bond connecting atoms Pb1        and O4         Dist= 5.01D+00.
 Add virtual bond connecting atoms Pb1        and O40        Dist= 5.03D+00.
 Add virtual bond connecting atoms O28        and H14        Dist= 4.91D+00.

 GradGradGradGradGradGradGradGradGradGradGradGradGradGradGradGradGradGrad
 Berny optimization.
 Initialization pass.
                           ----------------------------
                           !    Initial Parameters    !
                           ! (Angstroms and Degrees)  !
 --------------------------                            --------------------------
 ! Name  Definition              Value          Derivative Info.                !
 --------------------------------------------------------------------------------
 ! R1    R(1,2)                  2.8849         estimate D2E/DX2                !
 ! R2    R(1,3)                  2.9759         estimate D2E/DX2                !
 ! R3    R(1,4)                  2.6537         estimate D2E/DX2                !
 ! R4    R(1,28)                 2.5038         estimate D2E/DX2                !
 ! R5    R(1,40)                 2.6606         estimate D2E/DX2                !
 ! R6    R(4,5)                  1.235          estimate D2E/DX2                !
 ! R7    R(4,51)                 2.3086         estimate D2E/DX2                !
 ! R8    R(5,6)                  1.512          estimate D2E/DX2                !
 ! R9    R(5,7)                  1.3492         estimate D2E/DX2                !
 ! R10   R(6,8)                  1.5324         estimate D2E/DX2                !
 ! R11   R(6,14)                 1.1108         estimate D2E/DX2                !
 ! R12   R(6,15)                 1.1054         estimate D2E/DX2                !
 ! R13   R(7,9)                  1.4682         estimate D2E/DX2                !
 ! R14   R(8,9)                  1.5328         estimate D2E/DX2                !
 ! R15   R(8,12)                 1.1052         estimate D2E/DX2                !
 ! R16   R(8,13)                 1.1081         estimate D2E/DX2                !
 ! R17   R(9,10)                 1.1047         estimate D2E/DX2                !
 ! R18   R(9,11)                 1.1095         estimate D2E/DX2                !
 ! R19   R(14,28)                2.5978         estimate D2E/DX2                !
 ! R20   R(15,16)                2.3345         estimate D2E/DX2                !
 ! R21   R(16,17)                1.2319         estimate D2E/DX2                !
 ! R22   R(17,18)                1.5156         estimate D2E/DX2                !
 ! R23   R(17,19)                1.3537         estimate D2E/DX2                !
 ! R24   R(18,20)                1.5318         estimate D2E/DX2                !
 ! R25   R(18,26)                1.1129         estimate D2E/DX2                !
 ! R26   R(18,27)                1.1044         estimate D2E/DX2                !
 ! R27   R(19,21)                1.4659         estimate D2E/DX2                !
 ! R28   R(20,21)                1.533          estimate D2E/DX2                !
 ! R29   R(20,24)                1.1053         estimate D2E/DX2                !
 ! R30   R(20,25)                1.1082         estimate D2E/DX2                !
 ! R31   R(21,22)                1.1048         estimate D2E/DX2                !
 ! R32   R(21,23)                1.1097         estimate D2E/DX2                !
 ! R33   R(28,29)                1.2373         estimate D2E/DX2                !
 ! R34   R(29,30)                1.5083         estimate D2E/DX2                !
 ! R35   R(29,31)                1.3458         estimate D2E/DX2                !
 ! R36   R(30,32)                1.5333         estimate D2E/DX2                !
 ! R37   R(30,38)                1.1117         estimate D2E/DX2                !
 ! R38   R(30,39)                1.1073         estimate D2E/DX2                !
 ! R39   R(31,33)                1.4708         estimate D2E/DX2                !
 ! R40   R(32,33)                1.5323         estimate D2E/DX2                !
 ! R41   R(32,36)                1.1049         estimate D2E/DX2                !
 ! R42   R(32,37)                1.1083         estimate D2E/DX2                !
 ! R43   R(33,34)                1.1044         estimate D2E/DX2                !
 ! R44   R(33,35)                1.1091         estimate D2E/DX2                !
 ! R45   R(40,41)                1.2337         estimate D2E/DX2                !
 ! R46   R(41,42)                1.5139         estimate D2E/DX2                !
 ! R47   R(41,43)                1.3518         estimate D2E/DX2                !
 ! R48   R(42,44)                1.5326         estimate D2E/DX2                !
 ! R49   R(42,50)                1.1123         estimate D2E/DX2                !
 ! R50   R(42,51)                1.1061         estimate D2E/DX2                !
 ! R51   R(43,45)                1.4668         estimate D2E/DX2                !
 ! R52   R(44,45)                1.533          estimate D2E/DX2                !
 ! R53   R(44,48)                1.1052         estimate D2E/DX2                !
 ! R54   R(44,49)                1.1082         estimate D2E/DX2                !
 ! R55   R(45,46)                1.1049         estimate D2E/DX2                !
 ! R56   R(45,47)                1.1096         estimate D2E/DX2                !
 ! A1    A(2,1,3)               95.956          estimate D2E/DX2                !
 ! A2    A(2,1,4)               88.0829         estimate D2E/DX2                !
 ! A3    A(2,1,28)              85.0709         estimate D2E/DX2                !
 ! A4    A(2,1,40)              87.233          estimate D2E/DX2                !
 ! A5    A(3,1,28)              91.7739         estimate D2E/DX2                !
 ! A6    A(3,1,40)             107.4242         estimate D2E/DX2                !
 ! A7    A(4,1,28)              74.666          estimate D2E/DX2                !
 ! A8    A(4,1,40)              86.6281         estimate D2E/DX2                !
 ! A9    A(28,1,40)            159.9655         estimate D2E/DX2                !
 ! A10   A(1,4,5)              130.924          estimate D2E/DX2                !
 ! A11   A(1,4,51)              91.4122         estimate D2E/DX2                !
 ! A12   A(5,4,51)             135.3156         estimate D2E/DX2                !
 ! A13   A(4,5,6)              129.3969         estimate D2E/DX2                !
 ! A14   A(4,5,7)              119.6359         estimate D2E/DX2                !
 ! A15   A(6,5,7)              110.9667         estimate D2E/DX2                !
 ! A16   A(5,6,8)              102.941          estimate D2E/DX2                !
 ! A17   A(5,6,14)             107.0762         estimate D2E/DX2                !
 ! A18   A(5,6,15)             110.1306         estimate D2E/DX2                !
 ! A19   A(8,6,14)             113.2897         estimate D2E/DX2                !
 ! A20   A(8,6,15)             116.3867         estimate D2E/DX2                !
 ! A21   A(14,6,15)            106.6527         estimate D2E/DX2                !
 ! A22   A(5,7,9)              109.5846         estimate D2E/DX2                !
 ! A23   A(6,8,9)              102.0633         estimate D2E/DX2                !
 ! A24   A(6,8,12)             113.7775         estimate D2E/DX2                !
 ! A25   A(6,8,13)             110.3394         estimate D2E/DX2                !
 ! A26   A(9,8,12)             112.0115         estimate D2E/DX2                !
 ! A27   A(9,8,13)             110.1937         estimate D2E/DX2                !
 ! A28   A(12,8,13)            108.3572         estimate D2E/DX2                !
 ! A29   A(7,9,8)              105.1755         estimate D2E/DX2                !
 ! A30   A(7,9,10)             106.8855         estimate D2E/DX2                !
 ! A31   A(7,9,11)             107.1706         estimate D2E/DX2                !
 ! A32   A(8,9,10)             114.862          estimate D2E/DX2                !
 ! A33   A(8,9,11)             112.794          estimate D2E/DX2                !
 ! A34   A(10,9,11)            109.4153         estimate D2E/DX2                !
 ! A35   A(6,14,28)            108.8827         estimate D2E/DX2                !
 ! A36   A(6,15,16)            156.8131         estimate D2E/DX2                !
 ! A37   A(15,16,17)           117.1417         estimate D2E/DX2                !
 ! A38   A(16,17,18)           129.2473         estimate D2E/DX2                !
 ! A39   A(16,17,19)           120.341          estimate D2E/DX2                !
 ! A40   A(18,17,19)           110.4067         estimate D2E/DX2                !
 ! A41   A(17,18,20)           103.1208         estimate D2E/DX2                !
 ! A42   A(17,18,26)           105.9764         estimate D2E/DX2                !
 ! A43   A(17,18,27)           111.2659         estimate D2E/DX2                !
 ! A44   A(20,18,26)           111.9041         estimate D2E/DX2                !
 ! A45   A(20,18,27)           116.1044         estimate D2E/DX2                !
 ! A46   A(26,18,27)           107.9913         estimate D2E/DX2                !
 ! A47   A(17,19,21)           109.6733         estimate D2E/DX2                !
 ! A48   A(18,20,21)           101.6881         estimate D2E/DX2                !
 ! A49   A(18,20,24)           113.8407         estimate D2E/DX2                !
 ! A50   A(18,20,25)           110.4704         estimate D2E/DX2                !
 ! A51   A(21,20,24)           112.0434         estimate D2E/DX2                !
 ! A52   A(21,20,25)           110.2669         estimate D2E/DX2                !
 ! A53   A(24,20,25)           108.42           estimate D2E/DX2                !
 ! A54   A(19,21,20)           105.229          estimate D2E/DX2                !
 ! A55   A(19,21,22)           107.0861         estimate D2E/DX2                !
 ! A56   A(19,21,23)           107.1511         estimate D2E/DX2                !
 ! A57   A(20,21,22)           114.8369         estimate D2E/DX2                !
 ! A58   A(20,21,23)           112.5396         estimate D2E/DX2                !
 ! A59   A(22,21,23)           109.4858         estimate D2E/DX2                !
 ! A60   A(1,28,14)            109.102          estimate D2E/DX2                !
 ! A61   A(1,28,29)            134.6815         estimate D2E/DX2                !
 ! A62   A(14,28,29)           116.1025         estimate D2E/DX2                !
 ! A63   A(28,29,30)           129.7292         estimate D2E/DX2                !
 ! A64   A(28,29,31)           118.9502         estimate D2E/DX2                !
 ! A65   A(30,29,31)           111.3205         estimate D2E/DX2                !
 ! A66   A(29,30,32)           102.8139         estimate D2E/DX2                !
 ! A67   A(29,30,38)           106.9823         estimate D2E/DX2                !
 ! A68   A(29,30,39)           110.1672         estimate D2E/DX2                !
 ! A69   A(32,30,38)           113.3392         estimate D2E/DX2                !
 ! A70   A(32,30,39)           115.9176         estimate D2E/DX2                !
 ! A71   A(38,30,39)           107.2391         estimate D2E/DX2                !
 ! A72   A(29,31,33)           109.486          estimate D2E/DX2                !
 ! A73   A(30,32,33)           102.187          estimate D2E/DX2                !
 ! A74   A(30,32,36)           113.7509         estimate D2E/DX2                !
 ! A75   A(30,32,37)           110.102          estimate D2E/DX2                !
 ! A76   A(33,32,36)           112.0602         estimate D2E/DX2                !
 ! A77   A(33,32,37)           110.1967         estimate D2E/DX2                !
 ! A78   A(36,32,37)           108.4387         estimate D2E/DX2                !
 ! A79   A(31,33,32)           105.0407         estimate D2E/DX2                !
 ! A80   A(31,33,34)           106.741          estimate D2E/DX2                !
 ! A81   A(31,33,35)           107.0176         estimate D2E/DX2                !
 ! A82   A(32,33,34)           114.9613         estimate D2E/DX2                !
 ! A83   A(32,33,35)           112.9428         estimate D2E/DX2                !
 ! A84   A(34,33,35)           109.5459         estimate D2E/DX2                !
 ! A85   A(1,40,41)            129.4306         estimate D2E/DX2                !
 ! A86   A(40,41,42)           129.5175         estimate D2E/DX2                !
 ! A87   A(40,41,43)           119.7163         estimate D2E/DX2                !
 ! A88   A(42,41,43)           110.7618         estimate D2E/DX2                !
 ! A89   A(41,42,44)           103.0721         estimate D2E/DX2                !
 ! A90   A(41,42,50)           106.7366         estimate D2E/DX2                !
 ! A91   A(41,42,51)           110.7082         estimate D2E/DX2                !
 ! A92   A(44,42,50)           112.9939         estimate D2E/DX2                !
 ! A93   A(44,42,51)           115.9867         estimate D2E/DX2                !
 ! A94   A(50,42,51)           106.9888         estimate D2E/DX2                !
 ! A95   A(41,43,45)           109.6941         estimate D2E/DX2                !
 ! A96   A(42,44,45)           102.077          estimate D2E/DX2                !
 ! A97   A(42,44,48)           113.8156         estimate D2E/DX2                !
 ! A98   A(42,44,49)           110.272          estimate D2E/DX2                !
 ! A99   A(45,44,48)           112.0237         estimate D2E/DX2                !
 ! A100  A(45,44,49)           110.2047         estimate D2E/DX2                !
 ! A101  A(48,44,49)           108.3493         estimate D2E/DX2                !
 ! A102  A(43,45,44)           105.2671         estimate D2E/DX2                !
 ! A103  A(43,45,46)           106.9542         estimate D2E/DX2                !
 ! A104  A(43,45,47)           107.2137         estimate D2E/DX2                !
 ! A105  A(44,45,46)           114.8017         estimate D2E/DX2                !
 ! A106  A(44,45,47)           112.7169         estimate D2E/DX2                !
 ! A107  A(46,45,47)           109.3726         estimate D2E/DX2                !
 ! A108  A(4,51,42)            152.9186         estimate D2E/DX2                !
 ! A109  L(3,1,4,2,-1)         184.0389         estimate D2E/DX2                !
 ! A110  L(3,1,4,2,-2)         193.9553         estimate D2E/DX2                !
 ! D1    D(2,1,4,5)           -132.2164         estimate D2E/DX2                !
 ! D2    D(2,1,4,51)            63.4929         estimate D2E/DX2                !
 ! D3    D(28,1,4,5)           -46.803          estimate D2E/DX2                !
 ! D4    D(28,1,4,51)          148.9063         estimate D2E/DX2                !
 ! D5    D(40,1,4,5)           140.4439         estimate D2E/DX2                !
 ! D6    D(40,1,4,51)          -23.8469         estimate D2E/DX2                !
 ! D7    D(2,1,28,14)          116.7831         estimate D2E/DX2                !
 ! D8    D(2,1,28,29)          -59.0386         estimate D2E/DX2                !
 ! D9    D(3,1,28,14)         -147.3897         estimate D2E/DX2                !
 ! D10   D(3,1,28,29)           36.7886         estimate D2E/DX2                !
 ! D11   D(4,1,28,14)           27.4231         estimate D2E/DX2                !
 ! D12   D(4,1,28,29)         -148.3987         estimate D2E/DX2                !
 ! D13   D(40,1,28,14)          48.9893         estimate D2E/DX2                !
 ! D14   D(40,1,28,29)        -126.8325         estimate D2E/DX2                !
 ! D15   D(2,1,40,41)          -57.1122         estimate D2E/DX2                !
 ! D16   D(3,1,40,41)         -152.4895         estimate D2E/DX2                !
 ! D17   D(4,1,40,41)           31.1284         estimate D2E/DX2                !
 ! D18   D(28,1,40,41)          10.3284         estimate D2E/DX2                !
 ! D19   D(1,4,5,6)              4.8629         estimate D2E/DX2                !
 ! D20   D(1,4,5,7)           -175.413          estimate D2E/DX2                !
 ! D21   D(51,4,5,6)           162.2243         estimate D2E/DX2                !
 ! D22   D(51,4,5,7)           -18.0516         estimate D2E/DX2                !
 ! D23   D(1,4,51,42)            1.9245         estimate D2E/DX2                !
 ! D24   D(5,4,51,42)         -161.1623         estimate D2E/DX2                !
 ! D25   D(4,5,6,8)           -163.3595         estimate D2E/DX2                !
 ! D26   D(4,5,6,14)            76.9721         estimate D2E/DX2                !
 ! D27   D(4,5,6,15)           -38.6156         estimate D2E/DX2                !
 ! D28   D(7,5,6,8)             16.8973         estimate D2E/DX2                !
 ! D29   D(7,5,6,14)          -102.7712         estimate D2E/DX2                !
 ! D30   D(7,5,6,15)           141.6412         estimate D2E/DX2                !
 ! D31   D(4,5,7,9)           -177.6061         estimate D2E/DX2                !
 ! D32   D(6,5,7,9)              2.1656         estimate D2E/DX2                !
 ! D33   D(5,6,8,9)            -27.5608         estimate D2E/DX2                !
 ! D34   D(5,6,8,12)          -148.4222         estimate D2E/DX2                !
 ! D35   D(5,6,8,13)            89.5481         estimate D2E/DX2                !
 ! D36   D(14,6,8,9)            87.7125         estimate D2E/DX2                !
 ! D37   D(14,6,8,12)          -33.1489         estimate D2E/DX2                !
 ! D38   D(14,6,8,13)         -155.1786         estimate D2E/DX2                !
 ! D39   D(15,6,8,9)          -148.1049         estimate D2E/DX2                !
 ! D40   D(15,6,8,12)           91.0338         estimate D2E/DX2                !
 ! D41   D(15,6,8,13)          -30.9959         estimate D2E/DX2                !
 ! D42   D(5,6,14,28)          -70.1803         estimate D2E/DX2                !
 ! D43   D(8,6,14,28)          177.0338         estimate D2E/DX2                !
 ! D44   D(15,6,14,28)          47.7034         estimate D2E/DX2                !
 ! D45   D(5,6,15,16)           37.9723         estimate D2E/DX2                !
 ! D46   D(8,6,15,16)          154.5949         estimate D2E/DX2                !
 ! D47   D(14,6,15,16)         -77.8819         estimate D2E/DX2                !
 ! D48   D(5,7,9,8)            -20.5203         estimate D2E/DX2                !
 ! D49   D(5,7,9,10)          -143.0397         estimate D2E/DX2                !
 ! D50   D(5,7,9,11)            99.7415         estimate D2E/DX2                !
 ! D51   D(6,8,9,7)             29.5952         estimate D2E/DX2                !
 ! D52   D(6,8,9,10)           146.8135         estimate D2E/DX2                !
 ! D53   D(6,8,9,11)           -86.8781         estimate D2E/DX2                !
 ! D54   D(12,8,9,7)           151.6751         estimate D2E/DX2                !
 ! D55   D(12,8,9,10)          -91.1067         estimate D2E/DX2                !
 ! D56   D(12,8,9,11)           35.2018         estimate D2E/DX2                !
 ! D57   D(13,8,9,7)           -87.6185         estimate D2E/DX2                !
 ! D58   D(13,8,9,10)           29.5997         estimate D2E/DX2                !
 ! D59   D(13,8,9,11)          155.9082         estimate D2E/DX2                !
 ! D60   D(6,14,28,1)           16.0442         estimate D2E/DX2                !
 ! D61   D(6,14,28,29)        -167.2629         estimate D2E/DX2                !
 ! D62   D(6,15,16,17)         125.1616         estimate D2E/DX2                !
 ! D63   D(15,16,17,18)        -47.1146         estimate D2E/DX2                !
 ! D64   D(15,16,17,19)        133.7835         estimate D2E/DX2                !
 ! D65   D(16,17,18,20)        163.2748         estimate D2E/DX2                !
 ! D66   D(16,17,18,26)        -79.0035         estimate D2E/DX2                !
 ! D67   D(16,17,18,27)         38.1378         estimate D2E/DX2                !
 ! D68   D(19,17,18,20)        -17.5521         estimate D2E/DX2                !
 ! D69   D(19,17,18,26)        100.1696         estimate D2E/DX2                !
 ! D70   D(19,17,18,27)       -142.6891         estimate D2E/DX2                !
 ! D71   D(16,17,19,21)        177.1328         estimate D2E/DX2                !
 ! D72   D(18,17,19,21)         -2.1252         estimate D2E/DX2                !
 ! D73   D(17,18,20,21)         28.4843         estimate D2E/DX2                !
 ! D74   D(17,18,20,24)        149.1765         estimate D2E/DX2                !
 ! D75   D(17,18,20,25)        -88.5675         estimate D2E/DX2                !
 ! D76   D(26,18,20,21)        -84.9896         estimate D2E/DX2                !
 ! D77   D(26,18,20,24)         35.7026         estimate D2E/DX2                !
 ! D78   D(26,18,20,25)        157.9586         estimate D2E/DX2                !
 ! D79   D(27,18,20,21)        150.4179         estimate D2E/DX2                !
 ! D80   D(27,18,20,24)        -88.8899         estimate D2E/DX2                !
 ! D81   D(27,18,20,25)         33.366          estimate D2E/DX2                !
 ! D82   D(17,19,21,20)         21.11           estimate D2E/DX2                !
 ! D83   D(17,19,21,22)        143.7325         estimate D2E/DX2                !
 ! D84   D(17,19,21,23)        -98.8754         estimate D2E/DX2                !
 ! D85   D(18,20,21,19)        -30.4972         estimate D2E/DX2                !
 ! D86   D(18,20,21,22)       -147.9837         estimate D2E/DX2                !
 ! D87   D(18,20,21,23)         85.8549         estimate D2E/DX2                !
 ! D88   D(24,20,21,19)       -152.4398         estimate D2E/DX2                !
 ! D89   D(24,20,21,22)         90.0737         estimate D2E/DX2                !
 ! D90   D(24,20,21,23)        -36.0877         estimate D2E/DX2                !
 ! D91   D(25,20,21,19)         86.7022         estimate D2E/DX2                !
 ! D92   D(25,20,21,22)        -30.7843         estimate D2E/DX2                !
 ! D93   D(25,20,21,23)       -156.9458         estimate D2E/DX2                !
 ! D94   D(1,28,29,30)           9.7773         estimate D2E/DX2                !
 ! D95   D(1,28,29,31)        -170.1198         estimate D2E/DX2                !
 ! D96   D(14,28,29,30)       -165.8257         estimate D2E/DX2                !
 ! D97   D(14,28,29,31)         14.2772         estimate D2E/DX2                !
 ! D98   D(28,29,30,32)       -163.2207         estimate D2E/DX2                !
 ! D99   D(28,29,30,38)         77.1572         estimate D2E/DX2                !
 ! D100  D(28,29,30,39)        -39.0919         estimate D2E/DX2                !
 ! D101  D(31,29,30,32)         16.6827         estimate D2E/DX2                !
 ! D102  D(31,29,30,38)       -102.9394         estimate D2E/DX2                !
 ! D103  D(31,29,30,39)        140.8114         estimate D2E/DX2                !
 ! D104  D(28,29,31,33)       -177.8203         estimate D2E/DX2                !
 ! D105  D(30,29,31,33)          2.2647         estimate D2E/DX2                !
 ! D106  D(29,30,32,33)        -27.3535         estimate D2E/DX2                !
 ! D107  D(29,30,32,36)       -148.3393         estimate D2E/DX2                !
 ! D108  D(29,30,32,37)         89.7216         estimate D2E/DX2                !
 ! D109  D(38,30,32,33)         87.7573         estimate D2E/DX2                !
 ! D110  D(38,30,32,36)        -33.2286         estimate D2E/DX2                !
 ! D111  D(38,30,32,37)       -155.1677         estimate D2E/DX2                !
 ! D112  D(39,30,32,33)       -147.5941         estimate D2E/DX2                !
 ! D113  D(39,30,32,36)         91.4201         estimate D2E/DX2                !
 ! D114  D(39,30,32,37)        -30.519          estimate D2E/DX2                !
 ! D115  D(29,31,33,32)        -20.4684         estimate D2E/DX2                !
 ! D116  D(29,31,33,34)       -142.9578         estimate D2E/DX2                !
 ! D117  D(29,31,33,35)         99.8208         estimate D2E/DX2                !
 ! D118  D(30,32,33,31)         29.4211         estimate D2E/DX2                !
 ! D119  D(30,32,33,34)        146.4266         estimate D2E/DX2                !
 ! D120  D(30,32,33,35)        -86.863          estimate D2E/DX2                !
 ! D121  D(36,32,33,31)        151.5697         estimate D2E/DX2                !
 ! D122  D(36,32,33,34)        -91.4249         estimate D2E/DX2                !
 ! D123  D(36,32,33,35)         35.2855         estimate D2E/DX2                !
 ! D124  D(37,32,33,31)        -87.5859         estimate D2E/DX2                !
 ! D125  D(37,32,33,34)         29.4196         estimate D2E/DX2                !
 ! D126  D(37,32,33,35)        156.13           estimate D2E/DX2                !
 ! D127  D(1,40,41,42)           3.4801         estimate D2E/DX2                !
 ! D128  D(1,40,41,43)        -177.362          estimate D2E/DX2                !
 ! D129  D(40,41,42,44)       -164.0933         estimate D2E/DX2                !
 ! D130  D(40,41,42,50)         76.6589         estimate D2E/DX2                !
 ! D131  D(40,41,42,51)        -39.4361         estimate D2E/DX2                !
 ! D132  D(43,41,42,44)         16.6889         estimate D2E/DX2                !
 ! D133  D(43,41,42,50)       -102.5589         estimate D2E/DX2                !
 ! D134  D(43,41,42,51)        141.346          estimate D2E/DX2                !
 ! D135  D(40,41,43,45)       -177.0492         estimate D2E/DX2                !
 ! D136  D(42,41,43,45)          2.2561         estimate D2E/DX2                !
 ! D137  D(41,42,44,45)        -27.3319         estimate D2E/DX2                !
 ! D138  D(41,42,44,48)       -148.2363         estimate D2E/DX2                !
 ! D139  D(41,42,44,49)         89.7679         estimate D2E/DX2                !
 ! D140  D(50,42,44,45)         87.4826         estimate D2E/DX2                !
 ! D141  D(50,42,44,48)        -33.4218         estimate D2E/DX2                !
 ! D142  D(50,42,44,49)       -155.4176         estimate D2E/DX2                !
 ! D143  D(51,42,44,45)       -148.4651         estimate D2E/DX2                !
 ! D144  D(51,42,44,48)         90.6305         estimate D2E/DX2                !
 ! D145  D(51,42,44,49)        -31.3653         estimate D2E/DX2                !
 ! D146  D(41,42,51,4)          37.4917         estimate D2E/DX2                !
 ! D147  D(44,42,51,4)         154.4451         estimate D2E/DX2                !
 ! D148  D(50,42,51,4)         -78.4468         estimate D2E/DX2                !
 ! D149  D(41,43,45,44)        -20.4546         estimate D2E/DX2                !
 ! D150  D(41,43,45,46)       -142.9881         estimate D2E/DX2                !
 ! D151  D(41,43,45,47)         99.7866         estimate D2E/DX2                !
 ! D152  D(42,44,45,43)         29.4014         estimate D2E/DX2                !
 ! D153  D(42,44,45,46)        146.7317         estimate D2E/DX2                !
 ! D154  D(42,44,45,47)        -87.1393         estimate D2E/DX2                !
 ! D155  D(48,44,45,43)        151.5412         estimate D2E/DX2                !
 ! D156  D(48,44,45,46)        -91.1286         estimate D2E/DX2                !
 ! D157  D(48,44,45,47)         35.0004         estimate D2E/DX2                !
 ! D158  D(49,44,45,43)        -87.7468         estimate D2E/DX2                !
 ! D159  D(49,44,45,46)         29.5835         estimate D2E/DX2                !
 ! D160  D(49,44,45,47)        155.7125         estimate D2E/DX2                !
 --------------------------------------------------------------------------------
 Trust Radius=3.00D-01 FncErr=1.00D-07 GrdErr=1.00D-06 EigMax=2.50D+02 EigMin=1.00D-04
 Number of steps in this run=    306 maximum allowed number of steps=    306.
 GradGradGradGradGradGradGradGradGradGradGradGradGradGradGradGradGradGrad

 Stoichiometry    C16H24Br2O8Pb
 Framework group  C1[X(C16H24Br2O8Pb)]
 Deg. of freedom   147
 Full point group                 C1      NOp   1
 Largest Abelian subgroup         C1      NOp   1
 Largest concise Abelian subgroup C1      NOp   1
                         Standard orientation:                         
 ---------------------------------------------------------------------
 Center     Atomic      Atomic             Coordinates (Angstroms)
 Number     Number       Type             X           Y           Z
 ---------------------------------------------------------------------
      1         82           0        0.378661   -0.467707   -0.255014
      2         35           0        1.382828   -1.423110    2.275096
      3         35           0       -1.519138   -2.715793   -0.702803
      4          8           0        1.508353    1.872819    0.281664
      5          6           0        1.062120    3.022111    0.209077
      6          6           0       -0.336749    3.489166   -0.124563
      7          8           0        1.875648    4.070364    0.453587
      8          6           0       -0.132410    4.969363   -0.464506
      9          6           0        1.109540    5.319556    0.362790
     10          1           0        1.775935    6.072074   -0.095578
     11          1           0        0.862450    5.628351    1.399441
     12          1           0       -0.995876    5.609127   -0.206520
     13          1           0        0.081150    5.090464   -1.545098
     14          1           0       -0.959037    3.328463    0.781379
     15          1           0       -0.768845    2.857086   -0.921896
     16          8           0       -1.207715    0.889790   -2.099668
     17          6           0       -2.389983    0.601189   -2.291028
     18          6           0       -3.546675    0.597350   -1.311765
     19          8           0       -2.807246    0.203791   -3.515948
     20          6           0       -4.775874    0.576719   -2.225599
     21          6           0       -4.230329   -0.144063   -3.463717
     22          1           0       -4.678056    0.175781   -4.421800
     23          1           0       -4.294242   -1.248408   -3.375653
     24          1           0       -5.646909    0.053201   -1.791010
     25          1           0       -5.082287    1.609327   -2.486435
     26          1           0       -3.448983   -0.343852   -0.725996
     27          1           0       -3.478529    1.445768   -0.608007
     28          8           0       -1.299085    0.776167    1.125861
     29          6           0       -2.166031    0.448200    1.945498
     30          6           0       -2.424613   -0.889831    2.591957
     31          8           0       -3.047009    1.373937    2.367496
     32          6           0       -3.849102   -0.734324    3.137461
     33          6           0       -3.943426    0.777392    3.369414
     34          1           0       -4.944018    1.213252    3.200675
     35          1           0       -3.567473    1.086144    4.366106
     36          1           0       -4.036510   -1.308610    4.062619
     37          1           0       -4.586426   -1.050872    2.372953
     38          1           0       -1.659704   -1.018953    3.388270
     39          1           0       -2.274013   -1.704300    1.857114
     40          8           0        2.717601   -1.178394   -1.305224
     41          6           0        3.857149   -0.824854   -0.991592
     42          6           0        4.309786    0.075064    0.138494
     43          8           0        4.916994   -1.273642   -1.700661
     44          6           0        5.745133    0.435900   -0.259402
     45          6           0        6.159605   -0.777313   -1.099847
     46          1           0        6.851359   -0.550791   -1.931091
     47          1           0        6.579237   -1.600792   -0.485792
     48          1           0        6.420386    0.594156    0.601094
     49          1           0        5.752093    1.352940   -0.881609
     50          1           0        4.256244   -0.529589    1.070527
     51          1           0        3.613464    0.925234    0.264346
 ---------------------------------------------------------------------
 Rotational constants (GHZ):           0.1247100           0.0854643           0.0778392
 General basis read from cards:  (5D, 7F)
 ======================================================================================================
                                       Pseudopotential Parameters
 ======================================================================================================
  Center     Atomic      Valence      Angular      Power
  Number     Number     Electrons     Momentum     of R      Exponent        Coefficient   SO-Coeffient
 ======================================================================================================
    1         82            4
                                      G and up 
                                                     0      376.5803786       -0.17896050    0.00000000
                                                     1       86.4840014      -54.39723370    0.00000000
                                                     2       26.6784276     -199.70617590    0.00000000
                                                     2        9.4261986      -79.12239410    0.00000000
                                                     2        2.7101719      -24.98690200    0.00000000
                                                     2        0.8792031       -4.43979390    0.00000000
                                      S - G
                                                     0      132.4248796        2.81153860    0.00000000
                                                     1       47.2376044       65.03672050    0.00000000
                                                     2       17.6312727      212.78685450    0.00000000
                                                     2        5.4744712       72.10531750    0.00000000
                                                     2        1.2634856       33.01409400    0.00000000
                                                     2        0.7651447       -5.77084610    0.00000000
                                      P - G
                                                     0       67.8966454        4.87549110    0.00000000
                                                     1       24.9898225       63.91481020    0.00000000
                                                     2       10.7052939      148.10643580    0.00000000
                                                     2        3.2792568       47.31063010    0.00000000
                                                     2        0.8452522       21.03067020    0.00000000
                                                     2        0.6416245       -7.09307720    0.00000000
                                      D - G
                                                     0       68.8336005        3.21613880    0.00000000
                                                     1       24.2815874       55.73860860    0.00000000
                                                     2        9.4532762      121.41683510    0.00000000
                                                     2        2.4788185       19.34560640    0.00000000
                                                     2        2.4789161       15.36751680    0.00000000
                                                     2        0.5551738        6.12987240    0.00000000
                                      F - G
                                                     0      128.1021322        4.13536820    0.00000000
                                                     1       54.8029154       67.51284460    0.00000000
                                                     2       24.5529308      258.73731070    0.00000000
                                                     2        8.1144792      113.24782640    0.00000000
                                                     2        1.6931290       34.16802010    0.00000000
                                                     2        0.7670500       -6.55319560    0.00000000
    2         35            7
                                      F and up 
                                                     1      213.6143969      -28.00000000    0.00000000
                                                     2       41.0585380     -134.92688520    0.00000000
                                                     2        8.7086530      -41.92719130    0.00000000
                                                     2        2.6074661       -5.93364200    0.00000000
                                      S - F
                                                     0       54.1980682        3.00000000    0.00000000
                                                     1       32.9053558       27.34306420    0.00000000
                                                     2       13.6744890      118.80288470    0.00000000
                                                     2        3.0341152       43.43548760    0.00000000
                                      P - F
                                                     0       54.2563340        5.00000000    0.00000000
                                                     1       26.0095593       25.05042520    0.00000000
                                                     2       28.2012995       92.61574630    0.00000000
                                                     2        9.4341061       95.82490160    0.00000000
                                                     2        2.5321764       26.26849830    0.00000000
                                      D - F
                                                     0       87.6328721        3.00000000    0.00000000
                                                     1       61.7373377       22.55335570    0.00000000
                                                     2       32.4385104      178.12419880    0.00000000
                                                     2        8.7537199       76.99241620    0.00000000
                                                     2        1.6633189        9.48182700    0.00000000
    3         35            7
                                      F and up 
                                                     1      213.6143969      -28.00000000    0.00000000
                                                     2       41.0585380     -134.92688520    0.00000000
                                                     2        8.7086530      -41.92719130    0.00000000
                                                     2        2.6074661       -5.93364200    0.00000000
                                      S - F
                                                     0       54.1980682        3.00000000    0.00000000
                                                     1       32.9053558       27.34306420    0.00000000
                                                     2       13.6744890      118.80288470    0.00000000
                                                     2        3.0341152       43.43548760    0.00000000
                                      P - F
                                                     0       54.2563340        5.00000000    0.00000000
                                                     1       26.0095593       25.05042520    0.00000000
                                                     2       28.2012995       92.61574630    0.00000000
                                                     2        9.4341061       95.82490160    0.00000000
                                                     2        2.5321764       26.26849830    0.00000000
                                      D - F
                                                     0       87.6328721        3.00000000    0.00000000
                                                     1       61.7373377       22.55335570    0.00000000
                                                     2       32.4385104      178.12419880    0.00000000
                                                     2        8.7537199       76.99241620    0.00000000
                                                     2        1.6633189        9.48182700    0.00000000
    4          8
                                   No pseudopotential on this center.
    5          6
                                   No pseudopotential on this center.
    6          6
                                   No pseudopotential on this center.
    7          8
                                   No pseudopotential on this center.
    8          6
                                   No pseudopotential on this center.
    9          6
                                   No pseudopotential on this center.
   10          1
                                   No pseudopotential on this center.
   11          1
                                   No pseudopotential on this center.
   12          1
                                   No pseudopotential on this center.
   13          1
                                   No pseudopotential on this center.
   14          1
                                   No pseudopotential on this center.
   15          1
                                   No pseudopotential on this center.
   16          8
                                   No pseudopotential on this center.
   17          6
                                   No pseudopotential on this center.
   18          6
                                   No pseudopotential on this center.
   19          8
                                   No pseudopotential on this center.
   20          6
                                   No pseudopotential on this center.
   21          6
                                   No pseudopotential on this center.
   22          1
                                   No pseudopotential on this center.
   23          1
                                   No pseudopotential on this center.
   24          1
                                   No pseudopotential on this center.
   25          1
                                   No pseudopotential on this center.
   26          1
                                   No pseudopotential on this center.
   27          1
                                   No pseudopotential on this center.
   28          8
                                   No pseudopotential on this center.
   29          6
                                   No pseudopotential on this center.
   30          6
                                   No pseudopotential on this center.
   31          8
                                   No pseudopotential on this center.
   32          6
                                   No pseudopotential on this center.
   33          6
                                   No pseudopotential on this center.
   34          1
                                   No pseudopotential on this center.
   35          1
                                   No pseudopotential on this center.
   36          1
                                   No pseudopotential on this center.
   37          1
                                   No pseudopotential on this center.
   38          1
                                   No pseudopotential on this center.
   39          1
                                   No pseudopotential on this center.
   40          8
                                   No pseudopotential on this center.
   41          6
                                   No pseudopotential on this center.
   42          6
                                   No pseudopotential on this center.
   43          8
                                   No pseudopotential on this center.
   44          6
                                   No pseudopotential on this center.
   45          6
                                   No pseudopotential on this center.
   46          1
                                   No pseudopotential on this center.
   47          1
                                   No pseudopotential on this center.
   48          1
                                   No pseudopotential on this center.
   49          1
                                   No pseudopotential on this center.
   50          1
                                   No pseudopotential on this center.
   51          1
                                   No pseudopotential on this center.
 ======================================================================================================
 There are   504 symmetry adapted cartesian basis functions of A   symmetry.
 There are   480 symmetry adapted basis functions of A   symmetry.
   480 basis functions,   996 primitive gaussians,   504 cartesian basis functions
   101 alpha electrons      101 beta electrons
       nuclear repulsion energy      2417.4895866229 Hartrees.
 NAtoms=   51 NActive=   51 NUniq=   51 SFac= 1.00D+00 NAtFMM=   60 NAOKFM=F Big=F
 Integral buffers will be    131072 words long.
 Raffenetti 2 integral format.
 Two-electron integral symmetry is turned on.
 Nuclear repulsion after empirical dispersion term =     2417.4263709968 Hartrees.
 Using the following non-standard input for PCM:
 eps=41.70
 --- end of non-standard input.
 ------------------------------------------------------------------------------
 Polarizable Continuum Model (PCM)
 =================================
 Model                : PCM.
 Atomic radii         : UFF (Universal Force Field).
 Polarization charges : Total charges.
 Charge compensation  : None.
 Solution method      : On-the-fly selection.
 Cavity type          : Scaled VdW (van der Waals Surface) (Alpha=1.100).
 Cavity algorithm     : GePol (No added spheres)
                        Default sphere list used, NSphG=   51.
                        Lebedev-Laikov grids with approx.  5.0 points / Ang**2.
                        Smoothing algorithm: York/Karplus (Gamma=1.0000).
                        Polarization charges: spherical gaussians, with
                                              point-specific exponents (IZeta= 3).
                        Self-potential: point-specific (ISelfS= 7).
                        Self-field    : sphere-specific E.n sum rule (ISelfD= 2).
 1st derivatives      : Analytical E(r).r(x)/FMM algorithm (CHGder, D1EAlg=3).
                        Cavity 1st derivative terms included.
 Solvent              : Water, Eps=  41.700000 Eps(inf)=   1.777849
 ------------------------------------------------------------------------------
 One-electron integrals computed using PRISM.
   1 Symmetry operations used in ECPInt.
 ECPInt:  NShTT=   26106 NPrTT=  192429 LenC2=   21394 LenP2D=   79070.
 LDataN:  DoStor=T MaxTD1= 6 Len=  172
 NBasis=   480 RedAO= T EigKep=  2.77D-03  NBF=   480
 NBsUse=   480 1.00D-06 EigRej= -1.00D+00 NBFU=   480
 Defaulting to unpruned grid for atomic number  82.
 ExpMin= 5.98D-02 ExpMax= 1.17D+04 ExpMxC= 4.01D+02 IAcc=3 IRadAn=         5 AccDes= 0.00D+00
 Harris functional with IExCor= 1009 and IRadAn=       5 diagonalized for initial guess.
 HarFok:  IExCor= 1009 AccDes= 0.00D+00 IRadAn=         5 IDoV= 1 UseB2=F ITyADJ=14
 ICtDFT=  3500011 ScaDFX=  1.000000  1.000000  1.000000  1.000000
 Defaulting to unpruned grid for atomic number  82.
 FoFCou: FMM=F IPFlag=           0 FMFlag=      100000 FMFlg1=           0
         NFxFlg=           0 DoJE=T BraDBF=F KetDBF=T FulRan=T
         wScrn=  0.000000 ICntrl=       500 IOpCl=  0 I1Cent=   200000004 NGrid=           0
         NMat0=    1 NMatS0=      1 NMatT0=    0 NMatD0=    1 NMtDS0=    0 NMtDT0=    0
 Petite list used in FoFCou.
 Requested convergence on RMS density matrix=1.00D-08 within 128 cycles.
 Requested convergence on MAX density matrix=1.00D-06.
 Requested convergence on             energy=1.00D-06.
 No special actions if energy rises.
 Defaulting to unpruned grid for atomic number  82.
 Defaulting to unpruned grid for atomic number  82.
 Defaulting to unpruned grid for atomic number  82.
 Defaulting to unpruned grid for atomic number  82.
 Defaulting to unpruned grid for atomic number  82.
 Defaulting to unpruned grid for atomic number  82.
 Defaulting to unpruned grid for atomic number  82.
 Defaulting to unpruned grid for atomic number  82.
 Inv3:  Mode=1 IEnd=    53780268.
 Iteration    1 A*A^-1 deviation from unit magnitude is 3.44D-15 for   1471.
 Iteration    1 A*A^-1 deviation from orthogonality  is 2.00D-15 for   2928   2026.
 Iteration    1 A^-1*A deviation from unit magnitude is 3.55D-15 for   1471.
 Iteration    1 A^-1*A deviation from orthogonality  is 3.83D-15 for   2489   2478.
 EnCoef did     1 forward-backward iterations
 Error on total polarization charges =  0.01548
 SCF Done:  E(RPBE-PBE) =  -1254.71134418     A.U. after   13 cycles
            NFock= 13  Conv=0.86D-08     -V/T= 2.0229

 **********************************************************************

            Population analysis using the SCF Density.

 **********************************************************************

 Orbital symmetries:
       Occupied  (A) (A) (A) (A) (A) (A) (A) (A) (A) (A) (A) (A)
                 (A) (A) (A) (A) (A) (A) (A) (A) (A) (A) (A) (A)
                 (A) (A) (A) (A) (A) (A) (A) (A) (A) (A) (A) (A)
                 (A) (A) (A) (A) (A) (A) (A) (A) (A) (A) (A) (A)
                 (A) (A) (A) (A) (A) (A) (A) (A) (A) (A) (A) (A)
                 (A) (A) (A) (A) (A) (A) (A) (A) (A) (A) (A) (A)
                 (A) (A) (A) (A) (A) (A) (A) (A) (A) (A) (A) (A)
                 (A) (A) (A) (A) (A) (A) (A) (A) (A) (A) (A) (A)
                 (A) (A) (A) (A) (A)
       Virtual   (A) (A) (A) (A) (A) (A) (A) (A) (A) (A) (A) (A)
                 (A) (A) (A) (A) (A) (A) (A) (A) (A) (A) (A) (A)
                 (A) (A) (A) (A) (A) (A) (A) (A) (A) (A) (A) (A)
                 (A) (A) (A) (A) (A) (A) (A) (A) (A) (A) (A) (A)
                 (A) (A) (A) (A) (A) (A) (A) (A) (A) (A) (A) (A)
                 (A) (A) (A) (A) (A) (A) (A) (A) (A) (A) (A) (A)
                 (A) (A) (A) (A) (A) (A) (A) (A) (A) (A) (A) (A)
                 (A) (A) (A) (A) (A) (A) (A) (A) (A) (A) (A) (A)
                 (A) (A) (A) (A) (A) (A) (A) (A) (A) (A) (A) (A)
                 (A) (A) (A) (A) (A) (A) (A) (A) (A) (A) (A) (A)
                 (A) (A) (A) (A) (A) (A) (A) (A) (A) (A) (A) (A)
                 (A) (A) (A) (A) (A) (A) (A) (A) (A) (A) (A) (A)
                 (A) (A) (A) (A) (A) (A) (A) (A) (A) (A) (A) (A)
                 (A) (A) (A) (A) (A) (A) (A) (A) (A) (A) (A) (A)
                 (A) (A) (A) (A) (A) (A) (A) (A) (A) (A) (A) (A)
                 (A) (A) (A) (A) (A) (A) (A) (A) (A) (A) (A) (A)
                 (A) (A) (A) (A) (A) (A) (A) (A) (A) (A) (A) (A)
                 (A) (A) (A) (A) (A) (A) (A) (A) (A) (A) (A) (A)
                 (A) (A) (A) (A) (A) (A) (A) (A) (A) (A) (A) (A)
                 (A) (A) (A) (A) (A) (A) (A) (A) (A) (A) (A) (A)
                 (A) (A) (A) (A) (A) (A) (A) (A) (A) (A) (A) (A)
                 (A) (A) (A) (A) (A) (A) (A) (A) (A) (A) (A) (A)
                 (A) (A) (A) (A) (A) (A) (A) (A) (A) (A) (A) (A)
                 (A) (A) (A) (A) (A) (A) (A) (A) (A) (A) (A) (A)
                 (A) (A) (A) (A) (A) (A) (A) (A) (A) (A) (A) (A)
                 (A) (A) (A) (A) (A) (A) (A) (A) (A) (A) (A) (A)
                 (A) (A) (A) (A) (A) (A) (A) (A) (A) (A) (A) (A)
                 (A) (A) (A) (A) (A) (A) (A) (A) (A) (A) (A) (A)
                 (A) (A) (A) (A) (A) (A) (A) (A) (A) (A) (A) (A)
                 (A) (A) (A) (A) (A) (A) (A) (A) (A) (A) (A) (A)
                 (A) (A) (A) (A) (A) (A) (A) (A) (A) (A) (A) (A)
                 (A) (A) (A) (A) (A) (A) (A)
 The electronic state is 1-A.
 Alpha  occ. eigenvalues --  -18.83230 -18.82578 -18.82274 -18.82157 -18.78931
 Alpha  occ. eigenvalues --  -18.78084 -18.77621 -18.77127 -10.04247 -10.03565
 Alpha  occ. eigenvalues --  -10.03267 -10.03035  -9.96540  -9.96256  -9.96097
 Alpha  occ. eigenvalues --   -9.96055  -9.92048  -9.91758  -9.91747  -9.91635
 Alpha  occ. eigenvalues --   -9.91527  -9.91504  -9.91456  -9.91396  -1.03560
 Alpha  occ. eigenvalues --   -1.02833  -1.02477  -1.02250  -0.95625  -0.94899
 Alpha  occ. eigenvalues --   -0.94553  -0.94300  -0.73912  -0.73523  -0.73429
 Alpha  occ. eigenvalues --   -0.73350  -0.67295  -0.66832  -0.66616  -0.66541
 Alpha  occ. eigenvalues --   -0.62839  -0.61927  -0.57314  -0.56964  -0.56739
 Alpha  occ. eigenvalues --   -0.56674  -0.51948  -0.51131  -0.50720  -0.50638
 Alpha  occ. eigenvalues --   -0.48254  -0.47129  -0.46785  -0.46559  -0.46512
 Alpha  occ. eigenvalues --   -0.45956  -0.45827  -0.45368  -0.44125  -0.42534
 Alpha  occ. eigenvalues --   -0.41676  -0.41404  -0.40855  -0.39425  -0.38770
 Alpha  occ. eigenvalues --   -0.38726  -0.38575  -0.38369  -0.38015  -0.37946
 Alpha  occ. eigenvalues --   -0.37643  -0.37061  -0.36471  -0.36094  -0.35353
 Alpha  occ. eigenvalues --   -0.33722  -0.33195  -0.33127  -0.32992  -0.32396
 Alpha  occ. eigenvalues --   -0.31988  -0.31772  -0.31681  -0.30934  -0.30753
 Alpha  occ. eigenvalues --   -0.30443  -0.30271  -0.27580  -0.26863  -0.26776
 Alpha  occ. eigenvalues --   -0.26518  -0.26317  -0.25654  -0.24996  -0.24399
 Alpha  occ. eigenvalues --   -0.24057  -0.22351  -0.21925  -0.21537  -0.21165
 Alpha  occ. eigenvalues --   -0.20753
 Alpha virt. eigenvalues --   -0.06004  -0.05734  -0.05004  -0.04600  -0.02887
 Alpha virt. eigenvalues --   -0.02529  -0.01163   0.02123   0.03731   0.03809
 Alpha virt. eigenvalues --    0.04291   0.05348   0.05968   0.06121   0.06360
 Alpha virt. eigenvalues --    0.06477   0.06681   0.06882   0.07090   0.08290
 Alpha virt. eigenvalues --    0.08716   0.08828   0.09301   0.10247   0.10591
 Alpha virt. eigenvalues --    0.11138   0.11779   0.11987   0.12570   0.12639
 Alpha virt. eigenvalues --    0.13244   0.13987   0.14132   0.14356   0.14959
 Alpha virt. eigenvalues --    0.15086   0.15389   0.15521   0.16113   0.16338
 Alpha virt. eigenvalues --    0.16616   0.16902   0.17501   0.20460   0.21280
 Alpha virt. eigenvalues --    0.21574   0.21789   0.22931   0.25295   0.26390
 Alpha virt. eigenvalues --    0.27508   0.27929   0.28188   0.29590   0.29741
 Alpha virt. eigenvalues --    0.31269   0.31620   0.34403   0.34617   0.35185
 Alpha virt. eigenvalues --    0.35450   0.37263   0.37982   0.39678   0.40097
 Alpha virt. eigenvalues --    0.40161   0.40762   0.41175   0.41718   0.42529
 Alpha virt. eigenvalues --    0.42892   0.42905   0.43796   0.44891   0.45134
 Alpha virt. eigenvalues --    0.45608   0.45730   0.46599   0.46897   0.47009
 Alpha virt. eigenvalues --    0.47606   0.48136   0.48334   0.48843   0.49321
 Alpha virt. eigenvalues --    0.49717   0.50286   0.50587   0.50814   0.51061
 Alpha virt. eigenvalues --    0.51212   0.51568   0.51659   0.52568   0.53156
 Alpha virt. eigenvalues --    0.53462   0.54115   0.55047   0.55183   0.55655
 Alpha virt. eigenvalues --    0.55943   0.56037   0.56351   0.57027   0.58216
 Alpha virt. eigenvalues --    0.58736   0.59036   0.59479   0.59691   0.60063
 Alpha virt. eigenvalues --    0.60261   0.60645   0.60807   0.61180   0.61313
 Alpha virt. eigenvalues --    0.61650   0.61848   0.62366   0.62564   0.62735
 Alpha virt. eigenvalues --    0.62859   0.62998   0.64133   0.64269   0.64769
 Alpha virt. eigenvalues --    0.65689   0.66729   0.68435   0.68694   0.70838
 Alpha virt. eigenvalues --    0.71707   0.72676   0.73137   0.73980   0.75234
 Alpha virt. eigenvalues --    0.76106   0.77286   0.77786   0.78384   0.79095
 Alpha virt. eigenvalues --    0.79767   0.80020   0.80574   0.82308   0.82840
 Alpha virt. eigenvalues --    0.84093   0.85018   0.86157   0.90862   0.92398
 Alpha virt. eigenvalues --    0.95183   0.97187   0.97582   0.98338   1.00144
 Alpha virt. eigenvalues --    1.01194   1.01603   1.02328   1.02782   1.03336
 Alpha virt. eigenvalues --    1.04115   1.04455   1.05581   1.05783   1.05958
 Alpha virt. eigenvalues --    1.07117   1.07565   1.07996   1.08226   1.08667
 Alpha virt. eigenvalues --    1.08921   1.11145   1.11515   1.12419   1.12694
 Alpha virt. eigenvalues --    1.12903   1.13098   1.13955   1.14885   1.15151
 Alpha virt. eigenvalues --    1.15953   1.16121   1.16732   1.17090   1.18159
 Alpha virt. eigenvalues --    1.18990   1.19949   1.20259   1.26060   1.26326
 Alpha virt. eigenvalues --    1.26435   1.26858   1.32258   1.32859   1.32944
 Alpha virt. eigenvalues --    1.33229   1.33586   1.34642   1.34894   1.36406
 Alpha virt. eigenvalues --    1.36981   1.38156   1.38858   1.39483   1.44966
 Alpha virt. eigenvalues --    1.45458   1.45787   1.45938   1.46638   1.47119
 Alpha virt. eigenvalues --    1.47297   1.47664   1.50106   1.50991   1.51043
 Alpha virt. eigenvalues --    1.51545   1.52414   1.52833   1.53016   1.53184
 Alpha virt. eigenvalues --    1.53380   1.53632   1.53648   1.53923   1.56016
 Alpha virt. eigenvalues --    1.56265   1.56689   1.57407   1.58157   1.58929
 Alpha virt. eigenvalues --    1.59017   1.59589   1.60439   1.60677   1.61337
 Alpha virt. eigenvalues --    1.61776   1.62805   1.63017   1.63801   1.64216
 Alpha virt. eigenvalues --    1.64971   1.65506   1.65645   1.66119   1.66218
 Alpha virt. eigenvalues --    1.66453   1.66638   1.67027   1.67212   1.67397
 Alpha virt. eigenvalues --    1.67705   1.67890   1.68030   1.68572   1.68867
 Alpha virt. eigenvalues --    1.69366   1.69995   1.70540   1.71540   1.71782
 Alpha virt. eigenvalues --    1.72940   1.73769   1.75073   1.76563   1.79115
 Alpha virt. eigenvalues --    1.79563   1.80385   1.81638   1.83412   1.84003
 Alpha virt. eigenvalues --    1.84264   1.84346   1.84874   1.85818   1.86681
 Alpha virt. eigenvalues --    1.87700   1.90359   1.91206   1.91554   1.92186
 Alpha virt. eigenvalues --    1.94556   1.94861   1.95346   1.97576   1.98111
 Alpha virt. eigenvalues --    1.98510   1.99282   2.00104   2.02105   2.02450
 Alpha virt. eigenvalues --    2.02798   2.03258   2.04408   2.04688   2.04929
 Alpha virt. eigenvalues --    2.05713   2.08363   2.08703   2.09302   2.11701
 Alpha virt. eigenvalues --    2.13375   2.13997   2.14313   2.14841   2.18872
 Alpha virt. eigenvalues --    2.19859   2.21143   2.22056   2.26115   2.27066
 Alpha virt. eigenvalues --    2.27392   2.27699   2.32260   2.32628   2.32977
 Alpha virt. eigenvalues --    2.33455   2.35442   2.35642   2.36112   2.36437
 Alpha virt. eigenvalues --    2.39800   2.40097   2.40226   2.40704   2.41452
 Alpha virt. eigenvalues --    2.42473   2.43639   2.45047   2.49140   2.49569
 Alpha virt. eigenvalues --    2.49958   2.50496   2.51863   2.52400   2.52621
 Alpha virt. eigenvalues --    2.53896   2.55837   2.56522   2.56970   2.57284
 Alpha virt. eigenvalues --    2.58712   2.59014   2.59512   2.60716   2.73077
 Alpha virt. eigenvalues --    2.73263   2.73559   2.73899   2.84988   2.85185
 Alpha virt. eigenvalues --    2.85439   2.85454   2.88824   2.88841   2.89177
 Alpha virt. eigenvalues --    2.89547   2.94848   2.96113   2.96713   2.97922
 Alpha virt. eigenvalues --    3.00526   3.01220   3.01765   3.02723   3.18346
 Alpha virt. eigenvalues --    3.19046   3.19131   3.20916   3.32397   3.33894
 Alpha virt. eigenvalues --    3.35797   3.35968   3.38476   3.39011   3.41040
 Alpha virt. eigenvalues --    3.41727   9.41797  18.41383  18.66626
          Condensed to atoms (all electrons):
 Mulliken charges:
               1
     1  Pb   0.879429
     2  Br  -0.618659
     3  Br  -0.637838
     4  O   -0.280296
     5  C    0.206578
     6  C   -0.084120
     7  O   -0.196720
     8  C   -0.048040
     9  C    0.106839
    10  H    0.064238
    11  H    0.067193
    12  H    0.050474
    13  H    0.056022
    14  H    0.084229
    15  H    0.071356
    16  O   -0.275937
    17  C    0.199062
    18  C   -0.086323
    19  O   -0.198272
    20  C   -0.043131
    21  C    0.106344
    22  H    0.061597
    23  H    0.063654
    24  H    0.049360
    25  H    0.055523
    26  H    0.079891
    27  H    0.065886
    28  O   -0.307535
    29  C    0.227736
    30  C   -0.042707
    31  O   -0.196063
    32  C   -0.055264
    33  C    0.106808
    34  H    0.067230
    35  H    0.071269
    36  H    0.054066
    37  H    0.059244
    38  H    0.086264
    39  H    0.056751
    40  O   -0.280908
    41  C    0.200965
    42  C   -0.084375
    43  O   -0.198282
    44  C   -0.052674
    45  C    0.107549
    46  H    0.062751
    47  H    0.066103
    48  H    0.050251
    49  H    0.055392
    50  H    0.082662
    51  H    0.064425
 Sum of Mulliken charges =  -0.00000
 Mulliken charges with hydrogens summed into heavy atoms:
               1
     1  Pb   0.879429
     2  Br  -0.618659
     3  Br  -0.637838
     4  O   -0.280296
     5  C    0.206578
     6  C    0.071466
     7  O   -0.196720
     8  C    0.058455
     9  C    0.238270
    16  O   -0.275937
    17  C    0.199062
    18  C    0.059454
    19  O   -0.198272
    20  C    0.061752
    21  C    0.231596
    28  O   -0.307535
    29  C    0.227736
    30  C    0.100308
    31  O   -0.196063
    32  C    0.058047
    33  C    0.245307
    40  O   -0.280908
    41  C    0.200965
    42  C    0.062713
    43  O   -0.198282
    44  C    0.052968
    45  C    0.236403
 Electronic spatial extent (au):  <R**2>=          13901.9135
 Charge=              0.0000 electrons
 Dipole moment (field-independent basis, Debye):
    X=             -5.1722    Y=             15.8724    Z=              0.5865  Tot=             16.7041
 Quadrupole moment (field-independent basis, Debye-Ang):
   XX=           -105.1293   YY=           -179.8161   ZZ=           -181.8426
   XY=             -4.5725   XZ=            -16.0841   YZ=             -1.1223
 Traceless Quadrupole moment (field-independent basis, Debye-Ang):
   XX=             50.4667   YY=            -24.2201   ZZ=            -26.2466
   XY=             -4.5725   XZ=            -16.0841   YZ=             -1.1223
 Octapole moment (field-independent basis, Debye-Ang**2):
  XXX=            119.5332  YYY=             87.9426  ZZZ=             41.9668  XYY=             44.2494
  XXY=            -41.3127  XXZ=            -22.7160  XZZ=           -114.5370  YZZ=            -30.2330
  YYZ=              7.6633  XYZ=              6.5138
 Hexadecapole moment (field-independent basis, Debye-Ang**3):
 XXXX=          -7474.2309 YYYY=          -4164.0111 ZZZZ=          -3691.3753 XXXY=           -119.2242
 XXXZ=             10.0776 YYYX=             46.4364 YYYZ=            -14.9517 ZZZX=            -51.9138
 ZZZY=             48.9075 XXYY=          -2605.5921 XXZZ=          -1890.8585 YYZZ=          -1511.2638
 XXYZ=            -48.4808 YYXZ=              1.9083 ZZXY=             53.1993
 N-N= 2.417426370997D+03 E-N=-7.757995975165D+03  KE= 1.226597814582D+03
   1 Symmetry operations used in ECPInt.
 ECPInt:  NShTT=   26106 NPrTT=  192429 LenC2=   21394 LenP2D=   79070.
 LDataN:  DoStor=T MaxTD1= 7 Len=  274
 D1PCM: PCM CHGder 1st derivatives, ID1Alg=3 FixD1E=F DoIter=F DoCFld=F I1PDM=0.
 Calling FoFJK, ICntrl=      2527 FMM=F ISym2X=0 I1Cent= 0 IOpClX= 0 NMat=1 NMatS=1 NMatT=0.
 Defaulting to unpruned grid for atomic number  82.
 Defaulting to unpruned grid for atomic number  82.
 Defaulting to unpruned grid for atomic number  82.
 Defaulting to unpruned grid for atomic number  82.
 Defaulting to unpruned grid for atomic number  82.
 Defaulting to unpruned grid for atomic number  82.
 Defaulting to unpruned grid for atomic number  82.
 Defaulting to unpruned grid for atomic number  82.
 ***** Axes restored to original set *****
 -------------------------------------------------------------------
 Center     Atomic                   Forces (Hartrees/Bohr)
 Number     Number              X              Y              Z
 -------------------------------------------------------------------
      1       82           0.000332345    0.000036453   -0.000061401
      2       35           0.000101004    0.000031187    0.000116455
      3       35           0.000033065    0.000202179   -0.000189096
      4        8          -0.000267812    0.000546267   -0.000092014
      5        6           0.000183955   -0.000236303    0.000063465
      6        6          -0.000277416   -0.000043557   -0.000019452
      7        8           0.000285153    0.000241008    0.000004061
      8        6          -0.000189029   -0.000141805   -0.000177471
      9        6           0.000156171   -0.000040921    0.000097560
     10        1           0.000124346   -0.000244886   -0.000025609
     11        1          -0.000025001   -0.000158504    0.000220270
     12        1          -0.000135555   -0.000117512   -0.000032857
     13        1          -0.000028410   -0.000059985   -0.000157402
     14        1          -0.000122761    0.000112886    0.000097898
     15        1          -0.000063420   -0.000046480    0.000027530
     16        8           0.000294050    0.000082101    0.000074715
     17        6          -0.000117599   -0.000112471   -0.000323469
     18        6          -0.000160070   -0.000048439    0.000240409
     19        8           0.000298438   -0.000069139   -0.000126462
     20        6          -0.000265633   -0.000085881    0.000106300
     21        6           0.000059584    0.000100965   -0.000162284
     22        1          -0.000153607    0.000008517   -0.000229379
     23        1          -0.000069170    0.000260668   -0.000042209
     24        1          -0.000166788    0.000021662    0.000056916
     25        1          -0.000096368   -0.000139368   -0.000008246
     26        1           0.000014877    0.000051548    0.000136934
     27        1           0.000073850   -0.000086635    0.000170546
     28        8           0.000443171    0.000180576   -0.000429137
     29        6          -0.000179429   -0.000248908    0.000191293
     30        6           0.000019374    0.000279866    0.000145305
     31        8           0.000145320   -0.000245198   -0.000294915
     32        6          -0.000169016    0.000227734    0.000036695
     33        6          -0.000002125   -0.000190062    0.000013144
     34        1          -0.000238560   -0.000115951    0.000064273
     35        1          -0.000016803   -0.000086763    0.000264792
     36        1          -0.000085455    0.000121378    0.000103567
     37        1          -0.000125227    0.000079515   -0.000111317
     38        1           0.000141292    0.000034028    0.000079990
     39        1           0.000010447    0.000047718    0.000074934
     40        8          -0.000632896   -0.000070283    0.000101927
     41        6           0.000253490    0.000099577   -0.000221884
     42        6           0.000085954   -0.000120112    0.000258613
     43        8          -0.000214640    0.000149696   -0.000215087
     44        6           0.000127114   -0.000261413    0.000095931
     45        6           0.000037453    0.000133640   -0.000097131
     46        1           0.000232510   -0.000007633   -0.000149230
     47        1           0.000186198    0.000157046    0.000082693
     48        1           0.000120942   -0.000091224    0.000102675
     49        1           0.000027237   -0.000167300   -0.000049231
     50        1          -0.000073726    0.000076174    0.000128780
     51        1           0.000089176   -0.000045657    0.000057610
 -------------------------------------------------------------------
 Cartesian Forces:  Max     0.000632896 RMS     0.000169914

 GradGradGradGradGradGradGradGradGradGradGradGradGradGradGradGradGradGrad
 Berny optimization.
 FormGI is forming the generalized inverse of G from B-inverse, IUseBI=4.
 Internal  Forces:  Max     0.001347138 RMS     0.000215068
 Search for a local minimum.
 Step number   1 out of a maximum of  306
 All quantities printed in internal units (Hartrees-Bohrs-Radians)
 Mixed Optimization -- En-DIIS/RFO-DIIS
 Second derivative matrix not updated -- first step.
 ITU=  0
     Eigenvalues ---    0.00230   0.00230   0.00318   0.00501   0.00507
     Eigenvalues ---    0.00513   0.00528   0.00571   0.00751   0.00959
     Eigenvalues ---    0.00998   0.01165   0.01277   0.01417   0.01426
     Eigenvalues ---    0.01480   0.01708   0.01784   0.02094   0.02447
     Eigenvalues ---    0.02506   0.02592   0.03125   0.03185   0.03293
     Eigenvalues ---    0.03326   0.03349   0.03469   0.03830   0.03832
     Eigenvalues ---    0.03844   0.03845   0.03872   0.03915   0.04557
     Eigenvalues ---    0.04677   0.04930   0.04982   0.05004   0.05168
     Eigenvalues ---    0.05276   0.05311   0.05345   0.05373   0.05464
     Eigenvalues ---    0.05494   0.05545   0.05803   0.05868   0.05908
     Eigenvalues ---    0.06044   0.06124   0.06283   0.06569   0.06620
     Eigenvalues ---    0.06623   0.06634   0.06774   0.06886   0.07436
     Eigenvalues ---    0.07453   0.07865   0.07920   0.08117   0.08416
     Eigenvalues ---    0.08500   0.08565   0.09897   0.09905   0.09957
     Eigenvalues ---    0.11166   0.11269   0.11272   0.11272   0.11275
     Eigenvalues ---    0.11369   0.11600   0.11681   0.11705   0.12621
     Eigenvalues ---    0.13212   0.14605   0.16000   0.16458   0.18798
     Eigenvalues ---    0.19309   0.20067   0.21259   0.21533   0.21555
     Eigenvalues ---    0.22409   0.22607   0.22777   0.22901   0.23002
     Eigenvalues ---    0.24445   0.24997   0.25000   0.25000   0.27832
     Eigenvalues ---    0.27945   0.28101   0.28185   0.28201   0.28225
     Eigenvalues ---    0.28341   0.28449   0.29237   0.29354   0.29973
     Eigenvalues ---    0.30563   0.31649   0.32296   0.32340   0.32360
     Eigenvalues ---    0.32421   0.32633   0.32640   0.32650   0.32697
     Eigenvalues ---    0.32781   0.32787   0.32789   0.32799   0.32891
     Eigenvalues ---    0.33089   0.33105   0.33114   0.33115   0.33144
     Eigenvalues ---    0.33146   0.33152   0.33163   0.33199   0.33204
     Eigenvalues ---    0.34579   0.34586   0.34800   0.35066   0.51658
     Eigenvalues ---    0.51958   0.52431   0.53204   0.83837   0.86190
     Eigenvalues ---    0.88103   0.90284
 RFO step:  Lambda=-4.41365398D-04 EMin= 2.30000000D-03
 Linear search not attempted -- first point.
 Iteration  1 RMS(Cart)=  0.13062357 RMS(Int)=  0.01200054
 Iteration  2 RMS(Cart)=  0.14312991 RMS(Int)=  0.00648560
 Iteration  3 RMS(Cart)=  0.04775114 RMS(Int)=  0.00045763
 Iteration  4 RMS(Cart)=  0.00118352 RMS(Int)=  0.00000304
 Iteration  5 RMS(Cart)=  0.00000070 RMS(Int)=  0.00000303
 Variable       Old X    -DE/DX   Delta X   Delta X   Delta X     New X
                                 (Linear)    (Quad)   (Total)
    R1        5.45166  -0.00015   0.00000  -0.00213  -0.00213   5.44952
    R2        5.62366  -0.00016   0.00000  -0.00281  -0.00281   5.62085
    R3        5.01483   0.00019   0.00000   0.00266   0.00266   5.01748
    R4        4.73144  -0.00050   0.00000  -0.00542  -0.00542   4.72602
    R5        5.02776   0.00015   0.00000   0.00168   0.00168   5.02943
    R6        2.33384  -0.00035   0.00000  -0.00061  -0.00061   2.33323
    R7        4.36265  -0.00033   0.00000  -0.00866  -0.00866   4.35400
    R8        2.85736  -0.00048   0.00000  -0.00271  -0.00271   2.85465
    R9        2.54969  -0.00013   0.00000  -0.00040  -0.00040   2.54929
   R10        2.89585  -0.00047   0.00000  -0.00175  -0.00176   2.89409
   R11        2.09904  -0.00005   0.00000  -0.00021  -0.00021   2.09883
   R12        2.08896  -0.00016   0.00000  -0.00048  -0.00048   2.08848
   R13        2.77452  -0.00028   0.00000  -0.00056  -0.00056   2.77396
   R14        2.89658  -0.00052   0.00000  -0.00112  -0.00112   2.89546
   R15        2.08849  -0.00016   0.00000  -0.00050  -0.00050   2.08800
   R16        2.09406  -0.00016   0.00000  -0.00047  -0.00047   2.09359
   R17        2.08767  -0.00025   0.00000  -0.00077  -0.00077   2.08690
   R18        2.09671  -0.00025   0.00000  -0.00078  -0.00078   2.09593
   R19        4.90911  -0.00038   0.00000  -0.01396  -0.01396   4.89516
   R20        4.41161  -0.00009   0.00000  -0.00336  -0.00336   4.40825
   R21        2.32802  -0.00055   0.00000  -0.00061  -0.00061   2.32741
   R22        2.86398  -0.00049   0.00000  -0.00163  -0.00163   2.86235
   R23        2.55809  -0.00018   0.00000  -0.00034  -0.00034   2.55775
   R24        2.89471  -0.00043   0.00000  -0.00144  -0.00144   2.89326
[...]
 4606561,0.02668993,0.01494319,-0.00213678,0.01554517,-0.00045057,-0.00
 040467,0.00052581,0.00046140,0.00097505,-0.00034220,-0.02558803,0.0510
 5586,0.00002486,0.00001331,-0.00000707,-0.00004585,0.00001421,0.000020
 34,-0.00000624,0.00000775,-0.00000232,0.00000594,-0.00000590,-0.000003
 79,0.00000253,0.00000955,-0.00000250,0.00000002,-0.00000055,0.00000058
 ,0.00000099,-0.00000410,0.00000081,0.00000003,-0.00000006,-0.00000015,
 0.00000065,0.00000126,-0.00000018,-0.00000002,-0.00000021,-0.00000034,
 -0.00000033,-0.00000029,0.00000035,-0.00000014,-0.00000016,0.00000012,
 0.00000014,0.00000019,0.00000024,-0.00000020,0.00000024,-0.00000006,0.
 00000062,0.00000036,-0.00000020,-0.00000825,-0.00000170,-0.00000415,0.
 00000782,-0.00000350,0.00000160,-0.00000112,0.00000003,0.00000007,-0.0
 0000359,0.00000181,-0.00000321,-0.00000024,0.00000002,0.00000034,0.000
 00203,-0.00000011,-0.00000021,-0.00000023,0.00000006,-0.00000014,-0.00
 000033,0.00000008,0.00000009,-0.00000032,0.00000008,0.00000002,-0.0000
 0014,-0.00000012,-0.00000018,0.00000046,0.00000012,0.00000002,0.000000
 03,0.00000014,0.00000003,-0.00001348,-0.00000197,0.00001344,0.00001072
 ,-0.00000090,-0.00000840,-0.00000184,0.00000005,0.00000070,-0.00000678
 ,-0.00000286,0.00000490,0.00000039,0.00000003,-0.00000031,0.00000065,-
 0.00000112,-0.00000138,-0.00000043,-0.00000005,0.00000034,-0.00000019,
 0.00000027,0.00000053,-0.00000033,0.00000017,0.00000023,-0.00000051,-0
 .00000003,0.00000002,0.00000154,0.00000022,-0.00000177,0.00000175,-0.0
 0000035,-0.00000031,-0.00011814,-0.00070644,0.00096760,0.00366761,0.00
 047204,-0.00142774,0.00808097,-0.00305214,0.00882484,-0.00011057,0.002
 03110,-0.00006729,-0.12881000,0.03135129,-0.20910290,-0.00920811,-0.00
 142136,-0.01025717,0.00046366,0.00059458,-0.00027869,0.00003035,-0.000
 12886,0.00117637,0.13568700,-0.03287669,0.22155821,0.00027220,0.000058
 69,0.00006460,-0.00030411,0.00005963,0.00009447,-0.00002507,0.00003449
 ,-0.00001145,-0.00003143,-0.00006719,-0.00001037,0.00000270,0.00006598
 ,-0.00000211,-0.00000218,-0.00000459,-0.00000057,0.00001252,-0.0000291
 9,0.00000115,-0.00000173,0.00000045,0.00000088,0.00000372,0.00000185,0
 .00000210,-0.00000032,-0.00000187,0.00000006,-0.00000087,-0.00000118,-
 0.00000034,-0.00000009,-0.00000125,-0.00000071,-0.00000012,-0.00000106
 ,-0.00000118,0.00000010,0.00000085,-0.00000118,-0.00000045,0.00000141,
 0.00000132,-0.00003211,-0.00001288,-0.00001908,0.00002499,-0.00001363,
 0.00001136,-0.00000148,0.00000025,0.00000020,-0.00001034,0.00000715,-0
 .00001398,0.00000021,-0.00000015,0.00000092,0.00000469,0.00000072,-0.0
 0000049,-0.00000082,0.00000022,-0.00000048,-0.00000128,0.00000062,0.00
 000045,-0.00000077,0.00000004,-0.00000013,-0.00000060,-0.00000023,-0.0
 0000050,0.00000156,-0.00000006,0.00000061,-0.00000002,0.00000061,0.000
 00024,-0.00003975,-0.00000705,0.00003448,0.00003387,-0.00000068,-0.000
 02650,-0.00000663,-0.00000109,0.00000496,-0.00002018,-0.00000886,0.000
 01403,0.00000040,-0.00000045,-0.00000151,0.00000217,-0.00000319,-0.000
 00399,-0.00000121,-0.00000020,0.00000107,-0.00000061,0.00000089,0.0000
 0147,-0.00000090,0.00000052,0.00000083,-0.00000205,-0.00000013,0.00000
 017,0.00000917,0.00000126,-0.00000863,0.00000251,-0.00000048,0.0000007
 1,-0.00026892,0.00014490,-0.00073437,-0.00059554,-0.00060320,0.0029686
 2,-0.00322054,0.02350241,0.01797757,0.00101103,0.00054929,-0.00078689,
 -0.04204222,0.00442766,-0.00017906,-0.00259009,-0.00989570,-0.00555924
 ,0.00040099,0.00016206,-0.00055504,0.00044072,-0.00234283,0.00160660,0
 .00051075,-0.01423949,-0.00940586,0.04938098,-0.00020680,-0.00002349,0
 .00000849,0.00006609,-0.00001911,-0.00003020,0.00002124,-0.00002684,0.
 00000918,0.00011145,0.00011829,-0.00001893,0.00002282,-0.00013020,0.00
 000164,0.00000405,0.00001865,0.00000792,-0.00001696,0.00005260,-0.0000
 1090,0.00000865,-0.00000091,-0.00000153,-0.00000889,-0.00001218,-0.000
 00220,0.00000084,0.00000367,-0.00000005,0.00000249,0.00000284,-0.00000
 016,0.00000036,0.00000346,0.00000141,-0.00000015,0.00000157,0.00000173
 ,-0.00000053,0.00000028,0.00000125,0.00000032,0.00000018,-0.00000161,0
 .00002316,0.00000735,0.00001532,-0.00002231,0.00000741,-0.00001363,0.0
 0000086,-0.00000046,-0.00000015,0.00000750,-0.00000507,0.00001094,-0.0
 0000064,0.00000021,-0.00000074,-0.00000316,-0.00000065,0.00000026,0.00
 000067,-0.00000017,0.00000042,0.00000090,-0.00000036,-0.00000038,0.000
 00057,0.,0.00000018,0.00000057,0.00000028,0.00000041,-0.00000336,0.000
 00039,-0.00000043,-0.00000010,-0.00000061,-0.00000017,0.00003974,0.000
 00318,-0.00003673,-0.00003239,0.00000552,0.00002863,0.00000343,-0.0000
 0086,-0.00000290,0.00001923,0.00000680,-0.00001304,-0.00000090,-0.0000
 0028,-0.00000025,-0.00000222,0.00000342,0.00000388,0.00000118,-0.00000
 018,-0.00000102,0.00000057,-0.00000076,-0.00000124,0.00000084,-0.00000
 044,-0.00000050,0.00000100,-0.00000002,0.00000011,-0.00000184,-0.00000
 054,0.00000235,-0.00000266,0.00000122,0.00000143,0.00059052,-0.0001745
 0,0.00009316,-0.00071919,0.00014832,-0.00007616,-0.00062404,-0.0029001
 3,-0.00264118,0.00076724,0.00034348,0.00077995,0.00571737,-0.21019942,
 -0.12126299,-0.00220007,-0.02043506,-0.01517893,0.00032052,0.00160929,
 -0.00004429,-0.00045847,-0.00296750,0.00295686,0.00000196,0.00377081,0
 .00322563,-0.00384478,0.22919634,-0.00022752,-0.00003679,-0.00000155,0
 .00013321,-0.00003513,-0.00005362,0.00002166,-0.00002887,0.00000840,0.
 00006626,0.00010129,-0.00001138,0.00001529,-0.00010792,0.00000001,0.00
 000258,0.00000983,0.00000273,-0.00002095,0.00004255,-0.00000590,0.0000
 0419,-0.00000062,-0.00000044,-0.00000444,-0.00000502,-0.00000217,0.000
 00056,0.00000304,0.00000047,0.00000168,0.00000193,-0.00000018,-0.00000
 007,0.00000216,0.00000073,0.00000001,0.00000105,0.00000093,-0.00000029
 ,-0.00000014,0.00000131,-0.00000009,-0.00000048,-0.00000100,0.00002766
 ,0.00000919,0.00001518,-0.00002537,0.00000970,-0.00001209,0.00000151,-
 0.00000059,-0.00000046,0.00000944,-0.00000599,0.00001154,-0.00000042,0
 .00000018,-0.00000100,-0.00000459,-0.00000048,0.00000040,0.00000073,-0
 .00000020,0.00000042,0.00000112,-0.00000041,-0.00000037,0.00000075,-0.
 00000004,0.00000015,0.00000056,0.00000034,0.00000047,-0.00000268,0.000
 00034,-0.00000043,0.00000004,-0.00000052,-0.00000016,0.00003944,0.0000
 0434,-0.00003721,-0.00003290,0.00000477,0.00002874,0.00000413,-0.00000
 012,-0.00000346,0.00001961,0.00000739,-0.00001360,-0.00000080,-0.00000
 013,0.00000016,-0.00000210,0.00000335,0.00000404,0.00000119,-0.0000001
 3,-0.00000105,0.00000055,-0.00000080,-0.00000138,0.00000084,-0.0000004
 6,-0.00000057,0.00000120,0.00000003,0.00000003,-0.00000441,-0.00000103
 ,0.00000411,-0.00000257,0.00000094,0.00000097,0.00030085,-0.00020927,0
 .00038937,0.00013614,0.00037306,-0.00136651,0.00110617,-0.00619995,-0.
 00540747,0.00044159,-0.00086973,0.00015825,0.00011044,-0.12414772,-0.1
 3483790,0.00035742,0.01597201,0.00927521,-0.00014925,-0.00006005,0.001
 30721,0.00048573,0.00296627,-0.00056039,0.00127101,-0.01843642,-0.0123
 7562,-0.00593351,0.13107596,0.14205352,-0.00015142,-0.00017500,-0.0010
 6763,0.00080552,0.00001079,0.00024813,0.00006507,-0.00005477,0.0000430
 4,-0.00015841,0.00004738,0.00017285,0.00001512,0.00005234,0.00001027,-
 0.00000044,-0.00000752,-0.00002288,0.00000372,-0.00000107,0.00001287,-
 0.00000510,-0.00000009,-0.00000423,0.00000149,0.00000857,0.00000045,0.
 00000009,0.00000051,-0.00000030,-0.00000060,-0.00000041,0.00000017,0.0
 0000033,-0.00000056,0.00000017,0.00000005,0.00000103,0.00000087,0.0000
 0340,-0.00000351,0.00000152,-0.00000449,-0.00000844,-0.00000134,0.0001
 1316,0.00003670,0.00004240,-0.00008541,0.00004386,-0.00004118,0.000005
 56,-0.00000686,-0.00000218,0.00003473,-0.00002310,0.00004683,-0.000001
 94,0.00000058,-0.00000327,-0.00001779,-0.00000172,0.00000124,0.0000026
 7,-0.00000058,0.00000147,0.00000460,-0.00000259,-0.00000155,0.00000266
 ,0.00000007,0.00000045,0.00000165,0.00000110,0.00000140,-0.00000476,0.
 00000221,-0.00000281,0.00000041,-0.00000087,-0.00000056,0.00004394,0.0
 0003516,0.00003994,-0.00008107,-0.00009016,0.00004286,0.00004452,0.000
 01199,-0.00003322,0.00003643,0.00004185,-0.00002698,0.00000276,0.00001
 116,0.00002029,-0.00000518,-0.00000099,0.00000927,0.00000225,0.0000046
 3,-0.00000168,0.00000116,-0.00000208,-0.00000432,0.00000146,-0.0000016
 1,-0.00000382,0.00001453,0.00000199,-0.00000261,-0.00003929,-0.0000012
 7,0.00005927,-0.00001629,0.00000700,-0.00001217,-0.00181867,0.00304805
 ,0.00051678,-0.00072538,-0.00981772,-0.00745874,-0.03750614,0.00551405
 ,0.00606849,0.00050892,0.00130881,0.00031767,-0.00180199,0.01602197,0.
 02365617,-0.00016708,0.00006518,0.00027586,-0.00015428,-0.00043598,-0.
 00010598,0.00000739,-0.00032076,-0.00021106,0.00205141,0.00014710,-0.0
 0037831,-0.00465460,0.00048414,0.00223671,0.04323634,-0.00039581,-0.00
 010805,0.00025565,0.00013582,-0.00039261,-0.00028879,0.00002658,-0.000
 04169,0.00000415,-0.00030858,-0.00010975,0.00020427,0.00000917,0.00018
 570,-0.00000050,-0.00001180,-0.00002848,-0.00002859,0.00002832,-0.0000
 7269,0.00002746,-0.00001320,0.00000018,-0.00000321,0.00001509,0.000021
 80,0.00000207,-0.00000106,-0.00000366,-0.00000053,-0.00000466,-0.00000
 496,0.00000152,-0.00000084,-0.00000459,-0.00000124,0.00000073,-0.00000
 064,-0.00000022,0.00000343,-0.00000302,-0.00000100,-0.00000059,-0.0000
 0664,-0.00000217,0.00001907,0.00001147,0.00001570,-0.00002035,0.000007
 70,-0.00001058,0.00000114,0.00000057,-0.00000011,0.00000686,-0.0000054
 9,0.00000889,-0.00000041,0.00000047,-0.00000089,-0.00000322,-0.0000006
 4,0.00000024,0.00000050,-0.00000012,0.00000039,0.00000088,-0.00000029,
 -0.00000035,0.00000060,-0.00000003,0.00000012,0.00000054,0.00000020,0.
 00000040,-0.00000301,-0.00000016,-0.00000011,0.00000032,-0.00000048,-0
 .00000002,0.00003912,-0.00000569,-0.00007521,-0.00002351,0.00003645,0.
 00002567,-0.00000342,-0.00000290,0.00000325,0.00002085,-0.00000296,-0.
 00001155,-0.00000305,-0.00000209,-0.00000510,-0.00000178,0.00000604,0.
 00000394,0.00000149,-0.00000153,-0.00000127,0.00000040,-0.00000047,-0.
 00000020,0.00000089,-0.00000033,-0.00000016,-0.00000179,-0.00000071,0.
 00000124,-0.00000488,-0.00000417,-0.00000571,-0.00000162,-0.00000011,0
 .00000382,0.00139900,-0.00202533,-0.00119390,-0.00110194,0.01281556,0.
 01680005,0.00557279,-0.10559656,-0.11077518,-0.00219885,-0.00418335,-0
 .00022587,0.00118776,-0.00550011,-0.00523322,0.00116322,0.00003133,0.0
 0084723,-0.00012280,0.00005049,-0.00011040,-0.00007108,-0.00003383,-0.
 00038250,-0.00051412,0.00050231,0.00029047,0.00234218,0.00077895,-0.00
 069245,-0.00810876,0.11464496,-0.00029311,-0.00000627,-0.00001791,0.00
 041115,-0.00020471,-0.00055765,-0.00000300,-0.00000772,-0.00001987,0.0
 0000267,0.00000959,-0.00002355,-0.00000917,-0.00007156,0.00000420,0.00
 000210,0.00000797,0.00000234,-0.00001082,0.00003380,-0.00000493,0.0000
 0438,-0.00000101,-0.00000074,-0.00000624,-0.00000935,-0.00000157,0.000
 00039,0.00000191,0.00000027,0.00000190,0.00000222,-0.00000057,0.000000
 41,0.00000178,0.00000064,-0.00000014,0.00000053,0.00000050,0.00000130,
 0.00000173,0.00000049,0.00000009,0.00000134,0.00000062,0.00001560,0.00
 000291,0.00000464,-0.00001378,0.00000640,-0.00000097,0.00000113,-0.000
 00017,-0.00000099,0.00000509,-0.00000303,0.00000484,0.00000017,-0.0000
 0012,-0.00000064,-0.00000240,-0.00000066,0.00000029,0.00000035,-0.0000
 0006,0.00000008,0.00000082,-0.00000005,0.00000007,0.00000026,0.0000000
 2,0.00000005,0.00000007,0.00000020,0.,0.00000124,0.00000017,0.00000034
 ,0.00000039,0.00000027,0.00000035,-0.00000869,-0.00001646,-0.00001037,
 0.00001115,0.00000996,-0.00000775,0.00000059,0.00000198,-0.00000061,-0
 .00000281,-0.00000385,0.00000252,0.00000114,-0.00000137,-0.00000044,0.
 00000060,-0.00000028,-0.00000029,-0.00000003,-0.00000061,-0.00000003,-
 0.00000022,0.00000026,0.00000035,-0.00000037,0.,0.00000023,-0.00000093
 ,-0.00000031,0.00000010,-0.00001295,-0.00000290,0.00000217,0.00000185,
 -0.00000191,0.00000002,0.00138495,0.00206407,0.00195292,-0.00076156,-0
 .01225974,-0.02388418,0.00946821,-0.11523025,-0.22315131,-0.00056525,0
 .00360656,0.00030472,-0.00028678,-0.00179569,-0.00214945,-0.00014028,-
 0.00023640,-0.00018327,0.00008181,0.00005423,0.00001995,0.00019954,0.0
 0003820,-0.00019719,-0.00004770,0.00062319,0.00094665,0.00028901,0.000
 44796,0.00094208,-0.01006537,0.12122519,0.24413711,-0.00062761,0.00136
 352,-0.00052163,-0.00012565,-0.00000770,0.00000582,0.00016712,-0.00014
 841,0.00002165,-0.00111951,0.00195841,0.00002773,0.00038092,-0.0048455
 0,0.00023278,0.00017699,0.00062272,0.00007726,-0.00060219,0.00159759,-
 0.00024002,0.00029044,-0.00002481,-0.00001868,-0.00033405,-0.00041202,
 -0.00008141,0.00002890,0.00010299,0.00000688,0.00009035,0.00010356,-0.
 00001732,0.00001639,0.00011022,0.00004431,-0.00001192,0.00002924,0.000
 03131,0.00001762,0.00007955,0.00003447,-0.00002403,0.00008221,-0.00000
 854,0.00010498,-0.00004864,0.00005558,-0.00013963,0.00001643,-0.000091
 24,0.00000607,-0.00000814,-0.00000936,0.00003919,-0.00001734,0.0000520
 2,-0.00000405,0.00000068,-0.00000466,-0.00001575,0.00000369,0.00000228
 ,0.00000382,-0.00000048,0.00000156,0.00000340,-0.00000177,-0.00000148,
 0.00000324,-0.00000035,0.00000071,0.00000210,0.00000211,0.00000143,-0.
 00001907,0.00000302,0.00000087,-0.00000279,-0.00000071,0.00000191,0.00
 009704,-0.00010136,-0.00006014,-0.00013354,-0.00000984,0.00013595,0.00
 001516,-0.00001439,-0.00001340,0.00006331,0.00002648,-0.00004339,-0.00
 000283,-0.00000308,-0.00000600,-0.00001814,0.00001429,0.00001901,0.000
 00377,-0.00000165,-0.00000297,0.00000237,-0.00000271,-0.00000536,0.000
 00354,-0.00000208,-0.00000196,-0.00000018,-0.00000075,0.00000229,0.000
 00245,-0.00000064,-0.00000107,-0.00002469,0.00001369,0.00001670,-0.001
 24195,-0.00026810,-0.00110076,0.00736852,0.00900298,0.00530763,-0.1418
 0435,-0.12737764,0.01255316,0.00186394,0.00057135,-0.00492136,-0.01205
 411,-0.01968663,0.00300029,-0.00525264,0.00275321,0.00012763,0.0000992
 0,-0.00097305,0.00063735,0.00015529,-0.00022289,0.00023711,-0.00082661
 ,-0.00005219,0.00013078,0.00174174,-0.00007078,-0.00038831,0.00038901,
 0.00094439,0.00034327,0.15124840,0.00122166,0.00014757,0.00022966,-0.0
 0030090,0.00018297,0.00004174,-0.00004622,0.00006192,-0.00001456,-0.00
 007906,-0.00002680,0.00009551,-0.00053166,-0.00236551,0.00011512,-0.00
 004212,0.00020239,0.00004382,-0.00014537,0.00070826,-0.00018417,0.0001
 3153,-0.00003410,-0.00000375,-0.00012116,-0.00023445,-0.00005121,0.000
 00572,0.00003567,0.00000601,0.00003466,0.00004542,-0.00000800,0.000008
 21,0.00004063,0.00001465,-0.00000352,0.00001251,0.00001223,0.00002080,
 0.00002657,0.00000435,0.00000611,0.00003527,-0.00000287,-0.00008533,-0
 .00007386,-0.00004845,0.00006236,-0.00001311,0.00004279,-0.00000376,0.
 00000656,0.00000730,-0.00001501,0.00001725,-0.00002142,0.00000296,-0.0
 0000265,0.00000365,0.00001115,0.00000502,0.00000058,-0.00000088,-0.000
 00016,-0.00000084,-0.00000319,0.00000043,0.00000073,-0.00000123,0.0000
 0012,-0.00000039,-0.00000163,-0.00000161,-0.00000074,0.00001697,-0.000
 00396,-0.00000134,-0.00000247,-0.00000005,0.00000048,-0.00006715,-0.00
 005079,0.00007873,0.00006458,-0.00001260,-0.00006459,-0.00001688,0.000
 00293,0.00000091,-0.00003582,-0.00001174,0.00002368,-0.00000111,-0.000
 00305,-0.00000037,0.00000397,-0.00000643,-0.00000888,-0.00000231,0.000
 00097,0.00000231,-0.00000055,0.00000105,0.00000237,-0.00000082,0.00000
 105,0.00000091,-0.00000089,0.00000034,-0.00000103,0.00001500,0.0000015
 6,-0.00001034,0.00002459,-0.00001321,-0.00000932,-0.00015694,0.0025768
 8,0.00005886,-0.01044078,-0.01384595,-0.00201541,-0.12708502,-0.210358
 88,0.02008523,-0.00075531,-0.00024583,0.00245970,0.00755846,0.01040855
 ,-0.00208870,0.00369754,-0.00128780,0.00027082,0.00000549,0.00054780,-
 0.00048907,-0.00001237,0.00020766,-0.00019959,0.00029093,0.00000732,0.
 00019439,-0.00028275,0.00081527,0.00025173,-0.00784179,-0.01095005,0.0
 0171202,0.13490132,0.22344263,-0.00021389,-0.00001493,0.00035505,-0.00
 024620,0.00016982,0.00006000,-0.00000880,-0.00000202,-0.00001350,0.000
 16005,-0.00013686,-0.00102796,-0.00027778,0.00038779,-0.00005811,-0.00
 006003,-0.00010354,0.00027365,0.00008468,-0.00018791,-0.00023724,-0.00
 002861,-0.00000577,0.00003594,0.00002210,0.00004788,-0.00000163,-0.000
 00353,-0.00001009,-0.00000124,-0.00000322,-0.00000726,0.00000425,0.000
 00133,-0.00001568,-0.00000484,-0.00000048,-0.00000103,-0.00000578,-0.0
 0006701,-0.00003609,-0.00002235,0.00003884,0.00001785,0.00000872,-0.00
 002341,0.00000720,-0.00000397,0.00002775,0.00000520,0.00001378,0.00000
 278,0.00000098,-0.00000106,-0.00000301,0.00000177,-0.00000718,0.000003
 61,-0.00000008,-0.00000033,0.00000126,0.00000037,0.00000017,-0.0000003
 9,0.00000009,-0.00000018,-0.00000061,0.00000052,0.00000019,-0.00000026
 ,-0.00000054,-0.00000040,-0.00000011,-0.00000020,0.00000011,0.00000167
 ,-0.00000210,0.00000205,0.00000066,0.00000081,0.00000014,-0.00000917,0
 .00001625,-0.00001791,0.00001219,0.00001187,-0.00000922,-0.00000277,-0
 .00000430,0.00000799,-0.00000394,-0.00000543,0.00000139,-0.00000104,-0
 .00000036,-0.00000083,0.00000349,-0.00000110,-0.00000095,-0.00000051,-
 0.00000048,0.00000001,-0.00000038,0.00000059,0.00000006,-0.00000020,0.
 00000022,0.00000062,-0.00000163,0.00000002,0.00000004,0.00000491,0.000
 00179,-0.00000448,-0.00000870,0.00000178,0.00000270,0.00092219,-0.0028
 2758,0.00054455,0.01371819,0.01944074,-0.00304490,0.01103812,0.0168060
 6,-0.03715583,0.00177607,0.00170407,-0.00460651,0.00232849,0.00318597,
 -0.00189580,0.00030232,0.00169219,-0.00126164,0.00013568,0.00017080,-0
 .00005535,0.00024742,0.00018179,-0.00020007,-0.00010145,0.00004961,0.0
 0002762,0.00017930,0.00066527,0.00048948,-0.01437524,-0.02067072,0.001
 88572,-0.01557071,-0.02053523,0.04592499\\-0.00000288,0.00000824,-0.00
 000286,-0.00000217,-0.00000011,0.00000055,-0.00000101,-0.00000042,0.00
 000100,0.00000775,-0.00000795,0.00000322,-0.00000430,0.00000484,-0.000
 00241,0.00000452,-0.00000218,-0.00000295,-0.00000083,0.00000001,0.0000
 0101,0.00000070,0.00000181,-0.00000147,0.00000021,-0.00000054,0.000000
 09,0.00000057,0.00000014,-0.00000143,0.00000098,-0.00000039,-0.0000009
 7,0.00000057,-0.00000036,-0.00000077,0.00000035,0.00000028,-0.00000077
 ,-0.00000013,0.00000367,0.00000051,-0.00000437,0.00000078,-0.00000011,
 0.00000090,-0.00000411,0.00000016,-0.00000087,0.00000200,0.00000383,0.
 00000210,-0.00000151,0.00000050,-0.00000050,0.00000234,-0.00000272,-0.
 00000144,-0.00000024,-0.00000156,0.00000106,-0.00000018,0.00000040,0.0
 0000014,0.00000029,-0.00000039,-0.00000003,0.00000023,0.00000004,0.000
 00032,-0.00000014,0.00000021,0.00000012,0.00000015,-0.00000028,-0.0000
 0018,0.00000035,-0.00000081,-0.00000020,-0.00000049,-0.00000029,0.0000
 0347,-0.00001053,-0.00000226,-0.00000120,0.00000901,0.00000252,-0.0000
 0171,-0.00000337,-0.00000171,0.00000144,-0.00000274,-0.00000291,-0.000
 00047,-0.00000222,0.00000071,-0.00000277,0.00000163,0.00000232,0.00000
 001,-0.00000143,-0.00000050,0.00000006,-0.00000119,-0.00000034,-0.0000
 0033,-0.00000080,0.,-0.00000050,-0.00000082,-0.00000014,-0.00000014,-0
 .00000092,0.00000089,-0.00000012,-0.00000002,0.00000134,0.00000126,-0.
 00000662,0.00000739,0.00000274,0.00000756,-0.00000582,-0.00000732,0.00
 000105,0.00000382,-0.00000241,-0.00000076,0.00000092,0.00000265,0.0000
 0132,0.00000225,0.00000056,-0.00000069,0.00000026,0.00000006,0.0000014
 5,0.00000098,-0.00000040,0.00000080,0.00000122,0.00000005,0.00000034,0
 .00000008,-0.00000048,0.00000075,-0.00000038,0.00000143,0.00000126,-0.
 00000016,0.00000278,0.00000044,-0.00000222\\\@
 The archive entry for this job was punched.


 EDUCATION IS NOT TRAINING BUT RATHER THE PROCESS THAT EQUIPS YOU TO
 ENTERTAIN YOURSELF, A FRIEND, OR AN IDEA.  -- WALLACE STERLING
 Job cpu time:       0 days  2 hours 35 minutes 12.8 seconds.
 Elapsed time:       0 days  0 hours 19 minutes 25.4 seconds.
 File lengths (MBytes):  RWF=   1669 Int=      0 D2E=      0 Chk=     48 Scr=      1
 Normal termination of Gaussian 16 at Thu Nov  5 16:43:02 2020.
