 Entering Gaussian System, Link 0=g16
 Input=01-PbBr2_nmp_23893032.com
 Output=01-PbBr2_nmp_23893032.log
 Initial command:
 /cm/shared/uniol/software/gaussian/g16.c01/g16/l1.exe "/scratch/23893032_edba4025/Gau-31488.inp" -scrdir="/scratch/23893032_edba4025/"
 Entering Link 1 = /cm/shared/uniol/software/gaussian/g16.c01/g16/l1.exe PID=     31489.
  
 Copyright (c) 1988-2019, Gaussian, Inc.  All Rights Reserved.
  
 This is part of the Gaussian(R) 16 program.  It is based on
 the Gaussian(R) 09 system (copyright 2009, Gaussian, Inc.),
 the Gaussian(R) 03 system (copyright 2003, Gaussian, Inc.),
 the Gaussian(R) 98 system (copyright 1998, Gaussian, Inc.),
 the Gaussian(R) 94 system (copyright 1995, Gaussian, Inc.),
 the Gaussian 92(TM) system (copyright 1992, Gaussian, Inc.),
 the Gaussian 90(TM) system (copyright 1990, Gaussian, Inc.),
 the Gaussian 88(TM) system (copyright 1988, Gaussian, Inc.),
 the Gaussian 86(TM) system (copyright 1986, Carnegie Mellon
 University), and the Gaussian 82(TM) system (copyright 1983,
 Carnegie Mellon University). Gaussian is a federally registered
 trademark of Gaussian, Inc.
  
 This software contains proprietary and confidential information,
 including trade secrets, belonging to Gaussian, Inc.
  
 This software is provided under written license and may be
 used, copied, transmitted, or stored only in accord with that
 written license.
  
 The following legend is applicable only to US Government
 contracts under FAR:
  
                    RESTRICTED RIGHTS LEGEND
  
 Use, reproduction and disclosure by the US Government is
 subject to restrictions as set forth in subparagraphs (a)
 and (c) of the Commercial Computer Software - Restricted
 Rights clause in FAR 52.227-19.
  
 Gaussian, Inc.
 340 Quinnipiac St., Bldg. 40, Wallingford CT 06492
  
  
 ---------------------------------------------------------------
 Warning -- This program may not be used in any manner that
 competes with the business of Gaussian, Inc. or will provide
 assistance to any competitor of Gaussian, Inc.  The licensee
 of this program is prohibited from giving any competitor of
 Gaussian, Inc. access to this program.  By using this program,
 the user acknowledges that Gaussian, Inc. is engaged in the
 business of creating and licensing software in the field of
 computational chemistry and represents and warrants to the
 licensee that it is not a competitor of Gaussian, Inc. and that
 it will not use this program in any manner prohibited above.
 ---------------------------------------------------------------
  

 Cite this work as:
 Gaussian 16, Revision C.01,
 M. J. Frisch, G. W. Trucks, H. B. Schlegel, G. E. Scuseria, 
 M. A. Robb, J. R. Cheeseman, G. Scalmani, V. Barone, 
 G. A. Petersson, H. Nakatsuji, X. Li, M. Caricato, A. V. Marenich, 
 J. Bloino, B. G. Janesko, R. Gomperts, B. Mennucci, H. P. Hratchian, 
 J. V. Ortiz, A. F. Izmaylov, J. L. Sonnenberg, D. Williams-Young, 
 F. Ding, F. Lipparini, F. Egidi, J. Goings, B. Peng, A. Petrone, 
 T. Henderson, D. Ranasinghe, V. G. Zakrzewski, J. Gao, N. Rega, 
 G. Zheng, W. Liang, M. Hada, M. Ehara, K. Toyota, R. Fukuda, 
 J. Hasegawa, M. Ishida, T. Nakajima, Y. Honda, O. Kitao, H. Nakai, 
 T. Vreven, K. Throssell, J. A. Montgomery, Jr., J. E. Peralta, 
 F. Ogliaro, M. J. Bearpark, J. J. Heyd, E. N. Brothers, K. N. Kudin, 
 V. N. Staroverov, T. A. Keith, R. Kobayashi, J. Normand, 
 K. Raghavachari, A. P. Rendell, J. C. Burant, S. S. Iyengar, 
 J. Tomasi, M. Cossi, J. M. Millam, M. Klene, C. Adamo, R. Cammi, 
 J. W. Ochterski, R. L. Martin, K. Morokuma, O. Farkas, 
 J. B. Foresman, and D. J. Fox, Gaussian, Inc., Wallingford CT, 2019.
 
 ******************************************
 Gaussian 16:  ES64L-G16RevC.01  3-Jul-2019
                11-Jul-2021 
 ******************************************
 %Chk=01-PbBr2_nmp
 %mem=16GB
 %NProcShared=4
 Will use up to    4 processors via shared memory.
 ----------------------------------------------------------------------
 # pbepbe/Gen pseudo=read Opt=Tight Int=UltraFine Freq EmpiricalDispers
 ion=GD3BJ SCRF=(read)
 ----------------------------------------------------------------------
 1/7=10,18=20,19=15,26=6,38=1,40=2/1,3;
 2/9=110,12=2,17=6,18=5,40=1/2;
 3/5=7,11=2,16=1,17=8,25=1,30=1,70=2203,71=1,74=1009,75=-5,124=41/1,2,3;
 4//1;
 5/5=2,38=5/2;
 6/7=2,8=2,9=2,10=2,28=1/1;
 7//1,2,3,16;
 1/7=10,18=20,19=15,26=6/3(2);
 2/9=110/2;
 99//99;
 2/9=110/2;
 3/5=7,6=1,11=2,16=1,17=8,25=1,30=1,70=2205,71=1,74=1009,75=-5,82=7,124=41/1,2,3;
 4/5=5,16=3,69=1/1;
 5/5=2,38=5/2;
 7//1,2,3,16;
 1/7=10,18=20,19=15,26=6/3(-5);
 2/9=110/2;
 6/7=2,8=2,9=2,10=2,19=2,28=1/1;
 99/9=1/99;
 ---------
 PbBr2_nmp
 ---------
 Symbolic Z-matrix:
 Charge =  0 Multiplicity = 1
 Pb                   -0.42255  -0.82583  -0.24931 
 Br                   -2.00415  -2.9156   -1.73409 
 Br                   -1.27208  -1.08928   2.67596 
 O                     0.30824   0.31047  -2.36585 
 C                     1.28654   1.09938  -2.42458 
 C                     2.75438   0.72291  -2.48475 
 N                     1.18524   2.45067  -2.40898 
 C                     3.4634    2.03123  -2.86861 
 C                     2.47922   3.13468  -2.42846 
 C                    -0.06429   3.16334  -2.236 
 H                    -0.85747   2.42702  -2.01079 
 H                     0.02267   3.87779  -1.39148 
 H                    -0.32139   3.73828  -3.1496 
 H                     3.02144   0.36651  -1.46773 
 H                     2.91849  -0.11455  -3.1873 
 H                     4.45388   2.14968  -2.39289 
 H                     3.60483   2.07703  -3.96604 
 H                     2.45003   3.9967   -3.12421 
 H                     2.70192   3.52673  -1.41053 
 O                     1.53241   0.68181   0.56409 
 C                     1.43155   1.82115   1.08602 
 C                     0.16691   2.50217   1.56917 
 N                     2.48987   2.6336    1.33717 
 C                     0.59778   3.95742   1.8052 
 C                     2.11665   3.86028   2.04688 
 C                     3.87109   2.23149   1.16332 
 H                     3.88415   1.25157   0.65282 
 H                     4.37767   2.13924   2.14716 
 H                     4.42076   2.97678   0.55387 
 H                    -0.14272   1.98198   2.50181 
 H                    -0.65565   2.36147   0.84247 
 H                     0.07426   4.44009   2.64972 
 H                     0.40554   4.56272   0.89653 
 H                     2.6815    4.7233    1.64254 
 H                     2.37027   3.75995   3.12601 
 O                    -2.1267    1.10067  -0.42361 
 C                    -3.33837   1.04786  -0.07949 
 C                    -4.14817  -0.19222   0.24029 
 N                    -4.12201   2.13872   0.09537 
 C                    -5.5993    0.31148   0.2605 
 C                    -5.46353   1.8111    0.58577 
 C                    -3.64349   3.50305   0.01334 
 H                    -2.61673   3.4894   -0.39314 
 H                    -3.63371   3.9774    1.01733 
 H                    -4.29766   4.10102  -0.65219 
 H                    -3.79593  -0.55367   1.23232 
 H                    -3.93754  -0.99923  -0.48831 
 H                    -6.23771  -0.21465   0.99279 
 H                    -6.05508   0.19001  -0.74202 
 H                    -6.22089   2.44153   0.07916 
 H                    -5.52254   2.01757   1.67813 
 O                     1.69193  -2.21066  -0.36032 
 C                     2.60545  -2.0984    0.49807 
 C                     2.45297  -2.05287   2.00631 
 N                     3.92759  -2.05209   0.19598 
 C                     3.8255   -1.57438   2.49955 
 C                     4.79017  -2.00792   1.37888 
 C                     4.45525  -2.24988  -1.13828 
 H                     3.60098  -2.32857  -1.83413 
 H                     5.05686  -3.18172  -1.18405 
 H                     5.10103  -1.39858  -1.43398 
 H                     2.22377  -3.08853   2.34025 
 H                     1.59591  -1.41904   2.30075 
 H                     4.11409  -1.99361   3.48008 
 H                     3.8266   -0.46999   2.58406 
 H                     5.62325  -1.29486   1.21756 
 H                     5.23203  -3.01346   1.56103 
 
 Add virtual bond connecting atoms O36        and H31        Dist= 4.37D+00.
 Add virtual bond connecting atoms O20        and H14        Dist= 4.80D+00.
 Add virtual bond connecting atoms H27        and H14        Dist= 4.64D+00.
 Add virtual bond connecting atoms H33        and H12        Dist= 4.57D+00.
 Add virtual bond connecting atoms O36        and H11        Dist= 4.59D+00.
 Add virtual bond connecting atoms O4         and Pb1        Dist= 4.75D+00.
 Add virtual bond connecting atoms O20        and Pb1        Dist= 4.91D+00.
 Add virtual bond connecting atoms O36        and Pb1        Dist= 4.87D+00.
 Add virtual bond connecting atoms O52        and Pb1        Dist= 4.78D+00.
 Add virtual bond connecting atoms H59        and H15        Dist= 5.07D+00.
 Add virtual bond connecting atoms H65        and H27        Dist= 4.89D+00.

 GradGradGradGradGradGradGradGradGradGradGradGradGradGradGradGradGradGrad
 Berny optimization.
 Initialization pass.
                           ----------------------------
                           !    Initial Parameters    !
                           ! (Angstroms and Degrees)  !
 --------------------------                            --------------------------
 ! Name  Definition              Value          Derivative Info.                !
 --------------------------------------------------------------------------------
 ! R1    R(1,2)                  3.0122         estimate D2E/DX2                !
 ! R2    R(1,3)                  3.0575         estimate D2E/DX2                !
 ! R3    R(1,4)                  2.511          estimate D2E/DX2                !
 ! R4    R(1,20)                 2.5993         estimate D2E/DX2                !
 ! R5    R(1,36)                 2.578          estimate D2E/DX2                !
 ! R6    R(1,52)                 2.53           estimate D2E/DX2                !
 ! R7    R(4,5)                  1.2581         estimate D2E/DX2                !
 ! R8    R(5,6)                  1.5165         estimate D2E/DX2                !
 ! R9    R(5,7)                  1.3552         estimate D2E/DX2                !
 ! R10   R(6,8)                  1.5368         estimate D2E/DX2                !
 ! R11   R(6,14)                 1.1103         estimate D2E/DX2                !
 ! R12   R(6,15)                 1.1054         estimate D2E/DX2                !
 ! R13   R(7,9)                  1.4638         estimate D2E/DX2                !
 ! R14   R(7,10)                 1.4488         estimate D2E/DX2                !
 ! R15   R(8,9)                  1.5427         estimate D2E/DX2                !
 ! R16   R(8,16)                 1.1052         estimate D2E/DX2                !
 ! R17   R(8,17)                 1.1075         estimate D2E/DX2                !
 ! R18   R(9,18)                 1.1082         estimate D2E/DX2                !
 ! R19   R(9,19)                 1.1133         estimate D2E/DX2                !
 ! R20   R(10,11)                1.1055         estimate D2E/DX2                !
 ! R21   R(10,12)                1.1096         estimate D2E/DX2                !
 ! R22   R(10,13)                1.1096         estimate D2E/DX2                !
 ! R23   R(11,36)                2.4268         estimate D2E/DX2                !
 ! R24   R(12,33)                2.4188         estimate D2E/DX2                !
 ! R25   R(14,20)                2.5387         estimate D2E/DX2                !
 ! R26   R(14,27)                2.4545         estimate D2E/DX2                !
 ! R27   R(15,59)                2.683          estimate D2E/DX2                !
 ! R28   R(20,21)                1.2573         estimate D2E/DX2                !
 ! R29   R(21,22)                1.5154         estimate D2E/DX2                !
 ! R30   R(21,23)                1.3576         estimate D2E/DX2                !
 ! R31   R(22,24)                1.5359         estimate D2E/DX2                !
 ! R32   R(22,30)                1.1119         estimate D2E/DX2                !
 ! R33   R(22,31)                1.1066         estimate D2E/DX2                !
 ! R34   R(23,25)                1.4655         estimate D2E/DX2                !
 ! R35   R(23,26)                1.449          estimate D2E/DX2                !
 ! R36   R(24,25)                1.541          estimate D2E/DX2                !
 ! R37   R(24,32)                1.1047         estimate D2E/DX2                !
 ! R38   R(24,33)                1.1086         estimate D2E/DX2                !
 ! R39   R(25,34)                1.1079         estimate D2E/DX2                !
 ! R40   R(25,35)                1.1131         estimate D2E/DX2                !
 ! R41   R(26,27)                1.105          estimate D2E/DX2                !
 ! R42   R(26,28)                1.1104         estimate D2E/DX2                !
 ! R43   R(26,29)                1.1086         estimate D2E/DX2                !
 ! R44   R(27,65)                2.5878         estimate D2E/DX2                !
 ! R45   R(31,36)                2.3144         estimate D2E/DX2                !
 ! R46   R(36,37)                1.2607         estimate D2E/DX2                !
 ! R47   R(37,38)                1.5152         estimate D2E/DX2                !
 ! R48   R(37,39)                1.3545         estimate D2E/DX2                !
 ! R49   R(38,40)                1.5362         estimate D2E/DX2                !
 ! R50   R(38,46)                1.113          estimate D2E/DX2                !
 ! R51   R(38,47)                1.1075         estimate D2E/DX2                !
 ! R52   R(39,41)                1.4654         estimate D2E/DX2                !
 ! R53   R(39,42)                1.4481         estimate D2E/DX2                !
 ! R54   R(40,41)                1.5405         estimate D2E/DX2                !
 ! R55   R(40,48)                1.1048         estimate D2E/DX2                !
 ! R56   R(40,49)                1.1079         estimate D2E/DX2                !
 ! R57   R(41,50)                1.108          estimate D2E/DX2                !
 ! R58   R(41,51)                1.1133         estimate D2E/DX2                !
 ! R59   R(42,43)                1.1044         estimate D2E/DX2                !
 ! R60   R(42,44)                1.1105         estimate D2E/DX2                !
 ! R61   R(42,45)                1.1083         estimate D2E/DX2                !
 ! R62   R(52,53)                1.2586         estimate D2E/DX2                !
 ! R63   R(53,54)                1.5166         estimate D2E/DX2                !
 ! R64   R(53,55)                1.357          estimate D2E/DX2                !
 ! R65   R(54,56)                1.535          estimate D2E/DX2                !
 ! R66   R(54,62)                1.112          estimate D2E/DX2                !
 ! R67   R(54,63)                1.1059         estimate D2E/DX2                !
 ! R68   R(55,57)                1.4647         estimate D2E/DX2                !
 ! R69   R(55,58)                1.4484         estimate D2E/DX2                !
 ! R70   R(56,57)                1.5409         estimate D2E/DX2                !
 ! R71   R(56,64)                1.1048         estimate D2E/DX2                !
 ! R72   R(56,65)                1.1076         estimate D2E/DX2                !
 ! R73   R(57,66)                1.1084         estimate D2E/DX2                !
 ! R74   R(57,67)                1.1133         estimate D2E/DX2                !
 ! R75   R(58,59)                1.1046         estimate D2E/DX2                !
 ! R76   R(58,60)                1.1101         estimate D2E/DX2                !
 ! R77   R(58,61)                1.1087         estimate D2E/DX2                !
 ! A1    A(2,1,3)              105.4227         estimate D2E/DX2                !
 ! A2    A(2,1,4)               92.9392         estimate D2E/DX2                !
 ! A3    A(2,1,20)             162.093          estimate D2E/DX2                !
 ! A4    A(2,1,36)              97.934          estimate D2E/DX2                !
 ! A5    A(2,1,52)              92.1467         estimate D2E/DX2                !
 ! A6    A(3,1,4)              157.8684         estimate D2E/DX2                !
 ! A7    A(3,1,20)              87.6821         estimate D2E/DX2                !
 ! A8    A(3,1,36)              86.8705         estimate D2E/DX2                !
 ! A9    A(3,1,52)             103.1223         estimate D2E/DX2                !
 ! A10   A(4,1,20)              77.4322         estimate D2E/DX2                !
 ! A11   A(4,1,36)              78.3006         estimate D2E/DX2                !
 ! A12   A(4,1,52)              88.1362         estimate D2E/DX2                !
 ! A13   A(20,1,36)             94.8698         estimate D2E/DX2                !
 ! A14   A(20,1,52)             72.7004         estimate D2E/DX2                !
 ! A15   A(36,1,52)            163.4429         estimate D2E/DX2                !
 ! A16   A(1,4,5)              123.3269         estimate D2E/DX2                !
 ! A17   A(4,5,6)              126.7841         estimate D2E/DX2                !
 ! A18   A(4,5,7)              124.5128         estimate D2E/DX2                !
 ! A19   A(6,5,7)              108.6834         estimate D2E/DX2                !
 ! A20   A(5,6,8)              104.1889         estimate D2E/DX2                !
 ! A21   A(5,6,14)             106.031          estimate D2E/DX2                !
 ! A22   A(5,6,15)             110.9154         estimate D2E/DX2                !
 ! A23   A(8,6,14)             113.0235         estimate D2E/DX2                !
 ! A24   A(8,6,15)             114.6919         estimate D2E/DX2                !
 ! A25   A(14,6,15)            107.6552         estimate D2E/DX2                !
 ! A26   A(5,7,9)              113.5607         estimate D2E/DX2                !
 ! A27   A(5,7,10)             123.8018         estimate D2E/DX2                !
 ! A28   A(9,7,10)             122.2847         estimate D2E/DX2                !
 ! A29   A(6,8,9)              104.0834         estimate D2E/DX2                !
 ! A30   A(6,8,16)             113.4039         estimate D2E/DX2                !
 ! A31   A(6,8,17)             109.9771         estimate D2E/DX2                !
 ! A32   A(9,8,16)             111.8564         estimate D2E/DX2                !
 ! A33   A(9,8,17)             109.5494         estimate D2E/DX2                !
 ! A34   A(16,8,17)            107.9188         estimate D2E/DX2                !
 ! A35   A(7,9,8)              103.504          estimate D2E/DX2                !
 ! A36   A(7,9,18)             110.4            estimate D2E/DX2                !
 ! A37   A(7,9,19)             109.2212         estimate D2E/DX2                !
 ! A38   A(8,9,18)             113.2082         estimate D2E/DX2                !
 ! A39   A(8,9,19)             112.6519         estimate D2E/DX2                !
 ! A40   A(18,9,19)            107.7818         estimate D2E/DX2                !
 ! A41   A(7,10,11)            108.3908         estimate D2E/DX2                !
 ! A42   A(7,10,12)            109.8767         estimate D2E/DX2                !
 ! A43   A(7,10,13)            110.8783         estimate D2E/DX2                !
 ! A44   A(11,10,12)           109.2719         estimate D2E/DX2                !
 ! A45   A(11,10,13)           110.2797         estimate D2E/DX2                !
 ! A46   A(12,10,13)           108.1303         estimate D2E/DX2                !
 ! A47   A(10,11,36)           150.7568         estimate D2E/DX2                !
 ! A48   A(10,12,33)           156.1591         estimate D2E/DX2                !
 ! A49   A(6,14,20)            123.5166         estimate D2E/DX2                !
 ! A50   A(6,14,27)            139.4819         estimate D2E/DX2                !
 ! A51   A(20,14,27)            57.9884         estimate D2E/DX2                !
 ! A52   A(6,15,59)            110.0233         estimate D2E/DX2                !
 ! A53   A(1,20,14)             96.8142         estimate D2E/DX2                !
 ! A54   A(1,20,21)            126.5261         estimate D2E/DX2                !
 ! A55   A(14,20,21)           119.4626         estimate D2E/DX2                !
 ! A56   A(20,21,22)           127.34           estimate D2E/DX2                !
 ! A57   A(20,21,23)           123.8185         estimate D2E/DX2                !
 ! A58   A(22,21,23)           108.8212         estimate D2E/DX2                !
 ! A59   A(21,22,24)           103.9263         estimate D2E/DX2                !
 ! A60   A(21,22,30)           106.832          estimate D2E/DX2                !
 ! A61   A(21,22,31)           110.7206         estimate D2E/DX2                !
 ! A62   A(24,22,30)           113.1094         estimate D2E/DX2                !
 ! A63   A(24,22,31)           115.4622         estimate D2E/DX2                !
 ! A64   A(30,22,31)           106.5206         estimate D2E/DX2                !
 ! A65   A(21,23,25)           113.0769         estimate D2E/DX2                !
 ! A66   A(21,23,26)           123.6962         estimate D2E/DX2                !
 ! A67   A(25,23,26)           122.2173         estimate D2E/DX2                !
 ! A68   A(22,24,25)           103.9376         estimate D2E/DX2                !
 ! A69   A(22,24,32)           113.486          estimate D2E/DX2                !
 ! A70   A(22,24,33)           110.0422         estimate D2E/DX2                !
 ! A71   A(25,24,32)           112.0088         estimate D2E/DX2                !
 ! A72   A(25,24,33)           109.5039         estimate D2E/DX2                !
 ! A73   A(32,24,33)           107.811          estimate D2E/DX2                !
 ! A74   A(23,25,24)           103.1687         estimate D2E/DX2                !
 ! A75   A(23,25,34)           110.2095         estimate D2E/DX2                !
 ! A76   A(23,25,35)           109.6354         estimate D2E/DX2                !
 ! A77   A(24,25,34)           113.3395         estimate D2E/DX2                !
 ! A78   A(24,25,35)           112.4768         estimate D2E/DX2                !
 ! A79   A(34,25,35)           107.9321         estimate D2E/DX2                !
 ! A80   A(23,26,27)           108.2272         estimate D2E/DX2                !
 ! A81   A(23,26,28)           110.5855         estimate D2E/DX2                !
 ! A82   A(23,26,29)           110.6105         estimate D2E/DX2                !
 ! A83   A(27,26,28)           109.2844         estimate D2E/DX2                !
 ! A84   A(27,26,29)           109.654          estimate D2E/DX2                !
 ! A85   A(28,26,29)           108.4649         estimate D2E/DX2                !
 ! A86   A(14,27,26)           135.6239         estimate D2E/DX2                !
 ! A87   A(14,27,65)           113.3942         estimate D2E/DX2                !
 ! A88   A(26,27,65)           104.1768         estimate D2E/DX2                !
 ! A89   A(22,31,36)           154.2876         estimate D2E/DX2                !
 ! A90   A(12,33,24)           130.4028         estimate D2E/DX2                !
 ! A91   A(1,36,11)             96.1377         estimate D2E/DX2                !
 ! A92   A(1,36,31)             87.131          estimate D2E/DX2                !
 ! A93   A(1,36,37)            125.8439         estimate D2E/DX2                !
 ! A94   A(11,36,31)            74.1939         estimate D2E/DX2                !
 ! A95   A(11,36,37)           134.7559         estimate D2E/DX2                !
 ! A96   A(31,36,37)           118.9721         estimate D2E/DX2                !
 ! A97   A(36,37,38)           127.269          estimate D2E/DX2                !
 ! A98   A(36,37,39)           123.8868         estimate D2E/DX2                !
 ! A99   A(38,37,39)           108.8251         estimate D2E/DX2                !
 ! A100  A(37,38,40)           103.8441         estimate D2E/DX2                !
 ! A101  A(37,38,46)           106.5436         estimate D2E/DX2                !
 ! A102  A(37,38,47)           110.848          estimate D2E/DX2                !
 ! A103  A(40,38,46)           113.1848         estimate D2E/DX2                !
 ! A104  A(40,38,47)           115.2928         estimate D2E/DX2                !
 ! A105  A(46,38,47)           106.8307         estimate D2E/DX2                !
 ! A106  A(37,39,41)           113.1275         estimate D2E/DX2                !
 ! A107  A(37,39,42)           124.0744         estimate D2E/DX2                !
 ! A108  A(41,39,42)           122.146          estimate D2E/DX2                !
 ! A109  A(38,40,41)           103.8106         estimate D2E/DX2                !
 ! A110  A(38,40,48)           113.4793         estimate D2E/DX2                !
 ! A111  A(38,40,49)           109.9221         estimate D2E/DX2                !
 ! A112  A(41,40,48)           111.9969         estimate D2E/DX2                !
 ! A113  A(41,40,49)           109.5142         estimate D2E/DX2                !
 ! A114  A(48,40,49)           108.0488         estimate D2E/DX2                !
 ! A115  A(39,41,40)           103.1592         estimate D2E/DX2                !
 ! A116  A(39,41,50)           110.2136         estimate D2E/DX2                !
 ! A117  A(39,41,51)           109.5981         estimate D2E/DX2                !
 ! A118  A(40,41,50)           113.3968         estimate D2E/DX2                !
 ! A119  A(40,41,51)           112.523          estimate D2E/DX2                !
 ! A120  A(50,41,51)           107.8715         estimate D2E/DX2                !
 ! A121  A(39,42,43)           108.4465         estimate D2E/DX2                !
 ! A122  A(39,42,44)           110.7409         estimate D2E/DX2                !
 ! A123  A(39,42,45)           110.3206         estimate D2E/DX2                !
 ! A124  A(43,42,44)           109.2607         estimate D2E/DX2                !
 ! A125  A(43,42,45)           109.5359         estimate D2E/DX2                !
 ! A126  A(44,42,45)           108.5201         estimate D2E/DX2                !
 ! A127  A(1,52,53)            121.8623         estimate D2E/DX2                !
 ! A128  A(52,53,54)           127.4437         estimate D2E/DX2                !
 ! A129  A(52,53,55)           123.946          estimate D2E/DX2                !
 ! A130  A(54,53,55)           108.5613         estimate D2E/DX2                !
 ! A131  A(53,54,56)           103.8289         estimate D2E/DX2                !
 ! A132  A(53,54,62)           106.9418         estimate D2E/DX2                !
 ! A133  A(53,54,63)           111.0942         estimate D2E/DX2                !
 ! A134  A(56,54,62)           112.2172         estimate D2E/DX2                !
 ! A135  A(56,54,63)           115.3895         estimate D2E/DX2                !
 ! A136  A(62,54,63)           107.1029         estimate D2E/DX2                !
 ! A137  A(53,55,57)           113.2682         estimate D2E/DX2                !
 ! A138  A(53,55,58)           123.736          estimate D2E/DX2                !
 ! A139  A(57,55,58)           122.2462         estimate D2E/DX2                !
 ! A140  A(54,56,57)           103.7911         estimate D2E/DX2                !
 ! A141  A(54,56,64)           113.6092         estimate D2E/DX2                !
 ! A142  A(54,56,65)           109.6471         estimate D2E/DX2                !
 ! A143  A(57,56,64)           112.0362         estimate D2E/DX2                !
 ! A144  A(57,56,65)           109.5968         estimate D2E/DX2                !
 ! A145  A(64,56,65)           108.0829         estimate D2E/DX2                !
 ! A146  A(55,57,56)           103.1299         estimate D2E/DX2                !
 ! A147  A(55,57,66)           110.1515         estimate D2E/DX2                !
 ! A148  A(55,57,67)           109.7932         estimate D2E/DX2                !
 ! A149  A(56,57,66)           113.2902         estimate D2E/DX2                !
 ! A150  A(56,57,67)           112.5556         estimate D2E/DX2                !
 ! A151  A(66,57,67)           107.8518         estimate D2E/DX2                !
 ! A152  A(55,58,59)           107.9566         estimate D2E/DX2                !
 ! A153  A(55,58,60)           110.49           estimate D2E/DX2                !
 ! A154  A(55,58,61)           110.6736         estimate D2E/DX2                !
 ! A155  A(59,58,60)           109.4718         estimate D2E/DX2                !
 ! A156  A(59,58,61)           109.7033         estimate D2E/DX2                !
 ! A157  A(60,58,61)           108.5346         estimate D2E/DX2                !
 ! A158  A(15,59,58)           117.1065         estimate D2E/DX2                !
 ! A159  A(27,65,56)           127.3296         estimate D2E/DX2                !
 ! D1    D(2,1,4,5)           -161.6747         estimate D2E/DX2                !
 ! D2    D(3,1,4,5)             51.9093         estimate D2E/DX2                !
 ! D3    D(20,1,4,5)             3.0682         estimate D2E/DX2                !
 ! D4    D(36,1,4,5)           100.826          estimate D2E/DX2                !
 ! D5    D(52,1,4,5)           -69.6198         estimate D2E/DX2                !
 ! D6    D(2,1,20,14)           20.6922         estimate D2E/DX2                !
 ! D7    D(2,1,20,21)          155.5165         estimate D2E/DX2                !
 ! D8    D(3,1,20,14)          158.454          estimate D2E/DX2                !
 ! D9    D(3,1,20,21)          -66.7217         estimate D2E/DX2                !
 ! D10   D(4,1,20,14)          -38.0374         estimate D2E/DX2                !
 ! D11   D(4,1,20,21)           96.7869         estimate D2E/DX2                !
 ! D12   D(36,1,20,14)        -114.8873         estimate D2E/DX2                !
 ! D13   D(36,1,20,21)          19.9369         estimate D2E/DX2                !
 ! D14   D(52,1,20,14)          53.9417         estimate D2E/DX2                !
 ! D15   D(52,1,20,21)        -171.234          estimate D2E/DX2                !
 ! D16   D(2,1,36,11)         -108.757          estimate D2E/DX2                !
 ! D17   D(2,1,36,31)          177.4845         estimate D2E/DX2                !
 ! D18   D(2,1,36,37)           53.2834         estimate D2E/DX2                !
 ! D19   D(3,1,36,11)          146.0964         estimate D2E/DX2                !
 ! D20   D(3,1,36,31)           72.3379         estimate D2E/DX2                !
 ! D21   D(3,1,36,37)          -51.8632         estimate D2E/DX2                !
 ! D22   D(4,1,36,11)          -17.3812         estimate D2E/DX2                !
 ! D23   D(4,1,36,31)          -91.1397         estimate D2E/DX2                !
 ! D24   D(4,1,36,37)          144.6593         estimate D2E/DX2                !
 ! D25   D(20,1,36,11)          58.6934         estimate D2E/DX2                !
 ! D26   D(20,1,36,31)         -15.0652         estimate D2E/DX2                !
 ! D27   D(20,1,36,37)        -139.2662         estimate D2E/DX2                !
 ! D28   D(52,1,36,11)          18.2199         estimate D2E/DX2                !
 ! D29   D(52,1,36,31)         -55.5387         estimate D2E/DX2                !
 ! D30   D(52,1,36,37)        -179.7397         estimate D2E/DX2                !
 ! D31   D(2,1,52,53)         -153.4817         estimate D2E/DX2                !
 ! D32   D(3,1,52,53)          -47.1022         estimate D2E/DX2                !
 ! D33   D(4,1,52,53)          113.6454         estimate D2E/DX2                !
 ! D34   D(20,1,52,53)          36.2306         estimate D2E/DX2                !
 ! D35   D(36,1,52,53)          78.8711         estimate D2E/DX2                !
 ! D36   D(1,4,5,6)             79.1304         estimate D2E/DX2                !
 ! D37   D(1,4,5,7)            -99.066          estimate D2E/DX2                !
 ! D38   D(4,5,6,8)            167.2939         estimate D2E/DX2                !
 ! D39   D(4,5,6,14)           -73.2086         estimate D2E/DX2                !
 ! D40   D(4,5,6,15)            43.383          estimate D2E/DX2                !
 ! D41   D(7,5,6,8)            -14.275          estimate D2E/DX2                !
 ! D42   D(7,5,6,14)           105.2225         estimate D2E/DX2                !
 ! D43   D(7,5,6,15)          -138.1859         estimate D2E/DX2                !
 ! D44   D(4,5,7,9)            177.4174         estimate D2E/DX2                !
 ! D45   D(4,5,7,10)             4.1131         estimate D2E/DX2                !
 ! D46   D(6,5,7,9)             -1.0577         estimate D2E/DX2                !
 ! D47   D(6,5,7,10)          -174.362          estimate D2E/DX2                !
 ! D48   D(5,6,8,9)             22.9382         estimate D2E/DX2                !
 ! D49   D(5,6,8,16)           144.7284         estimate D2E/DX2                !
 ! D50   D(5,6,8,17)           -94.3375         estimate D2E/DX2                !
 ! D51   D(14,6,8,9)           -91.7036         estimate D2E/DX2                !
 ! D52   D(14,6,8,16)           30.0866         estimate D2E/DX2                !
 ! D53   D(14,6,8,17)          151.0206         estimate D2E/DX2                !
 ! D54   D(15,6,8,9)           144.3728         estimate D2E/DX2                !
 ! D55   D(15,6,8,16)          -93.837          estimate D2E/DX2                !
 ! D56   D(15,6,8,17)           27.0971         estimate D2E/DX2                !
 ! D57   D(5,6,14,20)          -12.3459         estimate D2E/DX2                !
 ! D58   D(5,6,14,27)          -90.5939         estimate D2E/DX2                !
 ! D59   D(8,6,14,20)          101.1832         estimate D2E/DX2                !
 ! D60   D(8,6,14,27)           22.9352         estimate D2E/DX2                !
 ! D61   D(15,6,14,20)        -131.1126         estimate D2E/DX2                !
 ! D62   D(15,6,14,27)         150.6394         estimate D2E/DX2                !
 ! D63   D(5,6,15,59)         -110.6009         estimate D2E/DX2                !
 ! D64   D(8,6,15,59)          131.7193         estimate D2E/DX2                !
 ! D65   D(14,6,15,59)           4.9866         estimate D2E/DX2                !
 ! D66   D(5,7,9,8)             15.8208         estimate D2E/DX2                !
 ! D67   D(5,7,9,18)           137.2678         estimate D2E/DX2                !
 ! D68   D(5,7,9,19)          -104.3907         estimate D2E/DX2                !
 ! D69   D(10,7,9,8)          -170.76           estimate D2E/DX2                !
 ! D70   D(10,7,9,18)          -49.313          estimate D2E/DX2                !
 ! D71   D(10,7,9,19)           69.0284         estimate D2E/DX2                !
 ! D72   D(5,7,10,11)            6.3357         estimate D2E/DX2                !
 ! D73   D(5,7,10,12)          125.6797         estimate D2E/DX2                !
 ! D74   D(5,7,10,13)         -114.8452         estimate D2E/DX2                !
 ! D75   D(9,7,10,11)         -166.4014         estimate D2E/DX2                !
 ! D76   D(9,7,10,12)          -47.0575         estimate D2E/DX2                !
 ! D77   D(9,7,10,13)           72.4176         estimate D2E/DX2                !
 ! D78   D(6,8,9,7)            -23.3619         estimate D2E/DX2                !
 ! D79   D(6,8,9,18)          -142.9009         estimate D2E/DX2                !
 ! D80   D(6,8,9,19)            94.4842         estimate D2E/DX2                !
 ! D81   D(16,8,9,7)          -146.1726         estimate D2E/DX2                !
 ! D82   D(16,8,9,18)           94.2884         estimate D2E/DX2                !
 ! D83   D(16,8,9,19)          -28.3265         estimate D2E/DX2                !
 ! D84   D(17,8,9,7)            94.2101         estimate D2E/DX2                !
 ! D85   D(17,8,9,18)          -25.3289         estimate D2E/DX2                !
 ! D86   D(17,8,9,19)         -147.9439         estimate D2E/DX2                !
 ! D87   D(7,10,11,36)          88.1479         estimate D2E/DX2                !
 ! D88   D(12,10,11,36)        -31.5756         estimate D2E/DX2                !
 ! D89   D(13,10,11,36)       -150.3024         estimate D2E/DX2                !
 ! D90   D(7,10,12,33)         -59.0877         estimate D2E/DX2                !
 ! D91   D(11,10,12,33)         59.7157         estimate D2E/DX2                !
 ! D92   D(13,10,12,33)        179.7718         estimate D2E/DX2                !
 ! D93   D(10,11,36,1)         -83.3712         estimate D2E/DX2                !
 ! D94   D(10,11,36,31)          1.8816         estimate D2E/DX2                !
 ! D95   D(10,11,36,37)        117.2377         estimate D2E/DX2                !
 ! D96   D(10,12,33,24)         -4.1747         estimate D2E/DX2                !
 ! D97   D(6,14,20,1)           65.2267         estimate D2E/DX2                !
 ! D98   D(6,14,20,21)         -73.8826         estimate D2E/DX2                !
 ! D99   D(27,14,20,1)        -163.3753         estimate D2E/DX2                !
 ! D100  D(27,14,20,21)         57.5154         estimate D2E/DX2                !
 ! D101  D(6,14,27,26)          26.2008         estimate D2E/DX2                !
 ! D102  D(6,14,27,65)         171.6585         estimate D2E/DX2                !
 ! D103  D(20,14,27,26)        -79.5133         estimate D2E/DX2                !
 ! D104  D(20,14,27,65)         65.9443         estimate D2E/DX2                !
 ! D105  D(6,15,59,58)         -53.6647         estimate D2E/DX2                !
 ! D106  D(1,20,21,22)          10.484          estimate D2E/DX2                !
 ! D107  D(1,20,21,23)        -171.3389         estimate D2E/DX2                !
 ! D108  D(14,20,21,22)        136.4986         estimate D2E/DX2                !
 ! D109  D(14,20,21,23)        -45.3243         estimate D2E/DX2                !
 ! D110  D(20,21,22,24)       -167.6831         estimate D2E/DX2                !
 ! D111  D(20,21,22,30)         72.4828         estimate D2E/DX2                !
 ! D112  D(20,21,22,31)        -43.1164         estimate D2E/DX2                !
 ! D113  D(23,21,22,24)         13.9169         estimate D2E/DX2                !
 ! D114  D(23,21,22,30)       -105.9172         estimate D2E/DX2                !
 ! D115  D(23,21,22,31)        138.4836         estimate D2E/DX2                !
 ! D116  D(20,21,23,25)       -175.3861         estimate D2E/DX2                !
 ! D117  D(20,21,23,26)         -6.6807         estimate D2E/DX2                !
 ! D118  D(22,21,23,25)          3.0827         estimate D2E/DX2                !
 ! D119  D(22,21,23,26)        171.7881         estimate D2E/DX2                !
 ! D120  D(21,22,24,25)        -24.2661         estimate D2E/DX2                !
 ! D121  D(21,22,24,32)       -146.1925         estimate D2E/DX2                !
 ! D122  D(21,22,24,33)         92.9089         estimate D2E/DX2                !
 ! D123  D(30,22,24,25)         91.2127         estimate D2E/DX2                !
 ! D124  D(30,22,24,32)        -30.7137         estimate D2E/DX2                !
 ! D125  D(30,22,24,33)       -151.6123         estimate D2E/DX2                !
 ! D126  D(31,22,24,25)       -145.7201         estimate D2E/DX2                !
 ! D127  D(31,22,24,32)         92.3535         estimate D2E/DX2                !
 ! D128  D(31,22,24,33)        -28.5451         estimate D2E/DX2                !
 ! D129  D(21,22,31,36)         59.2332         estimate D2E/DX2                !
 ! D130  D(24,22,31,36)        176.9515         estimate D2E/DX2                !
 ! D131  D(30,22,31,36)        -56.5599         estimate D2E/DX2                !
 ! D132  D(21,23,25,24)        -18.6199         estimate D2E/DX2                !
 ! D133  D(21,23,25,34)       -139.932          estimate D2E/DX2                !
 ! D134  D(21,23,25,35)        101.4033         estimate D2E/DX2                !
 ! D135  D(26,23,25,24)        172.4848         estimate D2E/DX2                !
 ! D136  D(26,23,25,34)         51.1727         estimate D2E/DX2                !
 ! D137  D(26,23,25,35)        -67.4919         estimate D2E/DX2                !
 ! D138  D(21,23,26,27)          9.0216         estimate D2E/DX2                !
 ! D139  D(21,23,26,28)       -110.655          estimate D2E/DX2                !
 ! D140  D(21,23,26,29)        129.1652         estimate D2E/DX2                !
 ! D141  D(25,23,26,27)        176.725          estimate D2E/DX2                !
 ! D142  D(25,23,26,28)         57.0484         estimate D2E/DX2                !
 ! D143  D(25,23,26,29)        -63.1314         estimate D2E/DX2                !
 ! D144  D(22,24,25,23)         25.7893         estimate D2E/DX2                !
 ! D145  D(22,24,25,34)        144.9563         estimate D2E/DX2                !
 ! D146  D(22,24,25,35)        -92.2633         estimate D2E/DX2                !
 ! D147  D(32,24,25,23)        148.6911         estimate D2E/DX2                !
 ! D148  D(32,24,25,34)        -92.1419         estimate D2E/DX2                !
 ! D149  D(32,24,25,35)         30.6385         estimate D2E/DX2                !
 ! D150  D(33,24,25,23)        -91.7596         estimate D2E/DX2                !
 ! D151  D(33,24,25,34)         27.4074         estimate D2E/DX2                !
 ! D152  D(33,24,25,35)        150.1878         estimate D2E/DX2                !
 ! D153  D(22,24,33,12)        -18.0492         estimate D2E/DX2                !
 ! D154  D(25,24,33,12)         95.6049         estimate D2E/DX2                !
 ! D155  D(32,24,33,12)       -142.297          estimate D2E/DX2                !
 ! D156  D(23,26,27,14)         57.7071         estimate D2E/DX2                !
 ! D157  D(23,26,27,65)        -89.8302         estimate D2E/DX2                !
 ! D158  D(28,26,27,14)        178.1983         estimate D2E/DX2                !
 ! D159  D(28,26,27,65)         30.661          estimate D2E/DX2                !
 ! D160  D(29,26,27,14)        -63.0332         estimate D2E/DX2                !
 ! D161  D(29,26,27,65)        149.4295         estimate D2E/DX2                !
 ! D162  D(14,27,65,56)         24.0223         estimate D2E/DX2                !
 ! D163  D(26,27,65,56)        179.8798         estimate D2E/DX2                !
 ! D164  D(22,31,36,1)         -24.058          estimate D2E/DX2                !
 ! D165  D(22,31,36,11)       -121.2646         estimate D2E/DX2                !
 ! D166  D(22,31,36,37)        105.9157         estimate D2E/DX2                !
 ! D167  D(1,36,37,38)         -13.5315         estimate D2E/DX2                !
 ! D168  D(1,36,37,39)         164.6993         estimate D2E/DX2                !
 ! D169  D(11,36,37,38)        140.891          estimate D2E/DX2                !
 ! D170  D(11,36,37,39)        -40.8783         estimate D2E/DX2                !
 ! D171  D(31,36,37,38)       -122.7632         estimate D2E/DX2                !
 ! D172  D(31,36,37,39)         55.4676         estimate D2E/DX2                !
 ! D173  D(36,37,38,40)       -166.99           estimate D2E/DX2                !
 ! D174  D(36,37,38,46)         73.2617         estimate D2E/DX2                !
 ! D175  D(36,37,38,47)        -42.6082         estimate D2E/DX2                !
 ! D176  D(39,37,38,40)         14.5616         estimate D2E/DX2                !
 ! D177  D(39,37,38,46)       -105.1866         estimate D2E/DX2                !
 ! D178  D(39,37,38,47)        138.9434         estimate D2E/DX2                !
 ! D179  D(36,37,39,41)       -175.9905         estimate D2E/DX2                !
 ! D180  D(36,37,39,42)         -5.0975         estimate D2E/DX2                !
 ! D181  D(38,37,39,41)          2.522          estimate D2E/DX2                !
 ! D182  D(38,37,39,42)        173.415          estimate D2E/DX2                !
 ! D183  D(37,38,40,41)        -24.7347         estimate D2E/DX2                !
 ! D184  D(37,38,40,48)       -146.5582         estimate D2E/DX2                !
 ! D185  D(37,38,40,49)         92.3286         estimate D2E/DX2                !
 ! D186  D(46,38,40,41)         90.3892         estimate D2E/DX2                !
 ! D187  D(46,38,40,48)        -31.4344         estimate D2E/DX2                !
 ! D188  D(46,38,40,49)       -152.5476         estimate D2E/DX2                !
 ! D189  D(47,38,40,41)       -146.1914         estimate D2E/DX2                !
 ! D190  D(47,38,40,48)         91.985          estimate D2E/DX2                !
 ! D191  D(47,38,40,49)        -29.1282         estimate D2E/DX2                !
 ! D192  D(37,39,41,40)        -18.4032         estimate D2E/DX2                !
 ! D193  D(37,39,41,50)       -139.7793         estimate D2E/DX2                !
 ! D194  D(37,39,41,51)        101.6509         estimate D2E/DX2                !
 ! D195  D(42,39,41,40)        170.5044         estimate D2E/DX2                !
 ! D196  D(42,39,41,50)         49.1284         estimate D2E/DX2                !
 ! D197  D(42,39,41,51)        -69.4415         estimate D2E/DX2                !
 ! D198  D(37,39,42,43)         10.4825         estimate D2E/DX2                !
 ! D199  D(37,39,42,44)       -109.3949         estimate D2E/DX2                !
 ! D200  D(37,39,42,45)        130.4445         estimate D2E/DX2                !
 ! D201  D(41,39,42,43)       -179.4166         estimate D2E/DX2                !
 ! D202  D(41,39,42,44)         60.706          estimate D2E/DX2                !
 ! D203  D(41,39,42,45)        -59.4545         estimate D2E/DX2                !
 ! D204  D(38,40,41,39)         25.9585         estimate D2E/DX2                !
 ! D205  D(38,40,41,50)        145.1536         estimate D2E/DX2                !
 ! D206  D(38,40,41,51)        -92.0668         estimate D2E/DX2                !
 ! D207  D(48,40,41,39)        148.7642         estimate D2E/DX2                !
 ! D208  D(48,40,41,50)        -92.0406         estimate D2E/DX2                !
 ! D209  D(48,40,41,51)         30.739          estimate D2E/DX2                !
 ! D210  D(49,40,41,39)        -91.3892         estimate D2E/DX2                !
 ! D211  D(49,40,41,50)         27.806          estimate D2E/DX2                !
 ! D212  D(49,40,41,51)        150.5855         estimate D2E/DX2                !
 ! D213  D(1,52,53,54)          46.3987         estimate D2E/DX2                !
 ! D214  D(1,52,53,55)        -136.4432         estimate D2E/DX2                !
 ! D215  D(52,53,54,56)       -166.8414         estimate D2E/DX2                !
 ! D216  D(52,53,54,62)         74.3388         estimate D2E/DX2                !
 ! D217  D(52,53,54,63)        -42.2138         estimate D2E/DX2                !
 ! D218  D(55,53,54,56)         15.6453         estimate D2E/DX2                !
 ! D219  D(55,53,54,62)       -103.1746         estimate D2E/DX2                !
 ! D220  D(55,53,54,63)        140.2728         estimate D2E/DX2                !
 ! D221  D(52,53,55,57)       -176.1876         estimate D2E/DX2                !
 ! D222  D(52,53,55,58)         -5.9312         estimate D2E/DX2                !
 ! D223  D(54,53,55,57)          1.4325         estimate D2E/DX2                !
 ! D224  D(54,53,55,58)        171.6889         estimate D2E/DX2                !
 ! D225  D(53,54,56,57)        -25.434          estimate D2E/DX2                !
 ! D226  D(53,54,56,64)       -147.3655         estimate D2E/DX2                !
 ! D227  D(53,54,56,65)         91.5882         estimate D2E/DX2                !
 ! D228  D(62,54,56,57)         89.6981         estimate D2E/DX2                !
 ! D229  D(62,54,56,64)        -32.2334         estimate D2E/DX2                !
 ! D230  D(62,54,56,65)       -153.2797         estimate D2E/DX2                !
 ! D231  D(63,54,56,57)       -147.2438         estimate D2E/DX2                !
 ! D232  D(63,54,56,64)         90.8247         estimate D2E/DX2                !
 ! D233  D(63,54,56,65)        -30.2216         estimate D2E/DX2                !
 ! D234  D(53,55,57,56)        -17.7656         estimate D2E/DX2                !
 ! D235  D(53,55,57,66)       -138.9688         estimate D2E/DX2                !
 ! D236  D(53,55,57,67)        102.4036         estimate D2E/DX2                !
 ! D237  D(58,55,57,56)        171.8133         estimate D2E/DX2                !
 ! D238  D(58,55,57,66)         50.6101         estimate D2E/DX2                !
 ! D239  D(58,55,57,67)        -68.0175         estimate D2E/DX2                !
 ! D240  D(53,55,58,59)          5.8993         estimate D2E/DX2                !
 ! D241  D(53,55,58,60)       -113.7825         estimate D2E/DX2                !
 ! D242  D(53,55,58,61)        125.9718         estimate D2E/DX2                !
 ! D243  D(57,55,58,59)        175.3066         estimate D2E/DX2                !
 ! D244  D(57,55,58,60)         55.6247         estimate D2E/DX2                !
 ! D245  D(57,55,58,61)        -64.621          estimate D2E/DX2                !
 ! D246  D(54,56,57,55)         26.0528         estimate D2E/DX2                !
 ! D247  D(54,56,57,66)        145.1009         estimate D2E/DX2                !
 ! D248  D(54,56,57,67)        -92.2026         estimate D2E/DX2                !
 ! D249  D(64,56,57,55)        149.0253         estimate D2E/DX2                !
 ! D250  D(64,56,57,66)        -91.9266         estimate D2E/DX2                !
 ! D251  D(64,56,57,67)         30.77           estimate D2E/DX2                !
 ! D252  D(65,56,57,55)        -91.0046         estimate D2E/DX2                !
 ! D253  D(65,56,57,66)         28.0435         estimate D2E/DX2                !
 ! D254  D(65,56,57,67)        150.74           estimate D2E/DX2                !
 ! D255  D(54,56,65,27)        -73.2012         estimate D2E/DX2                !
 ! D256  D(57,56,65,27)         40.1138         estimate D2E/DX2                !
 ! D257  D(64,56,65,27)        162.4714         estimate D2E/DX2                !
 ! D258  D(55,58,59,15)         98.0629         estimate D2E/DX2                !
 ! D259  D(60,58,59,15)       -141.6141         estimate D2E/DX2                !
 ! D260  D(61,58,59,15)        -22.6183         estimate D2E/DX2                !
 --------------------------------------------------------------------------------
 Trust Radius=3.00D-01 FncErr=5.00D-06 GrdErr=5.00D-06 EigMax=2.50D+02 EigMin=1.00D-04
 Number of steps in this run=    402 maximum allowed number of steps=    402.
 GradGradGradGradGradGradGradGradGradGradGradGradGradGradGradGradGradGrad

 Stoichiometry    C20H36Br2N4O4Pb
 Framework group  C1[X(C20H36Br2N4O4Pb)]
 Deg. of freedom   195
 Full point group                 C1      NOp   1
 Largest Abelian subgroup         C1      NOp   1
 Largest concise Abelian subgroup C1      NOp   1
                         Standard orientation:                         
 ---------------------------------------------------------------------
 Center     Atomic      Atomic             Coordinates (Angstroms)
 Number     Number       Type             X           Y           Z
 ---------------------------------------------------------------------
      1         82           0       -0.422550   -0.825830   -0.249310
      2         35           0       -2.004152   -2.915599   -1.734090
      3         35           0       -1.272081   -1.089280    2.675960
      4          8           0        0.308241    0.310469   -2.365850
      5          6           0        1.286541    1.099378   -2.424580
      6          6           0        2.754381    0.722907   -2.484750
      7          7           0        1.185242    2.450668   -2.408980
      8          6           0        3.463402    2.031226   -2.868610
      9          6           0        2.479223    3.134677   -2.428460
     10          6           0       -0.064287    3.163339   -2.236000
     11          1           0       -0.857468    2.427020   -2.010790
     12          1           0        0.022674    3.877789   -1.391480
     13          1           0       -0.321386    3.738279   -3.149600
     14          1           0        3.021441    0.366507   -1.467730
     15          1           0        2.918490   -0.114553   -3.187300
     16          1           0        4.453882    2.149675   -2.392890
     17          1           0        3.604832    2.077026   -3.966040
     18          1           0        2.450034    3.996697   -3.124210
     19          1           0        2.701923    3.526727   -1.410530
     20          8           0        1.532411    0.681808    0.564090
     21          6           0        1.431552    1.821148    1.086020
     22          6           0        0.166912    2.502169    1.569170
     23          7           0        2.489873    2.633597    1.337170
     24          6           0        0.597784    3.957419    1.805200
     25          6           0        2.116654    3.860277    2.046880
     26          6           0        3.871092    2.231486    1.163320
     27          1           0        3.884151    1.251566    0.652820
     28          1           0        4.377672    2.139235    2.147160
     29          1           0        4.420763    2.976775    0.553870
     30          1           0       -0.142718    1.981979    2.501810
     31          1           0       -0.655648    2.361470    0.842470
     32          1           0        0.074264    4.440089    2.649720
     33          1           0        0.405544    4.562719    0.896530
     34          1           0        2.681504    4.723297    1.642540
     35          1           0        2.370274    3.759947    3.126010
     36          8           0       -2.126699    1.100671   -0.423610
     37          6           0       -3.338369    1.047862   -0.079490
     38          6           0       -4.148170   -0.192217    0.240290
     39          7           0       -4.122008    2.138723    0.095370
     40          6           0       -5.599299    0.311484    0.260500
     41          6           0       -5.463528    1.811104    0.585770
     42          6           0       -3.643487    3.503052    0.013340
     43          1           0       -2.616727    3.489402   -0.393140
     44          1           0       -3.633706    3.977402    1.017330
     45          1           0       -4.297656    4.101023   -0.652190
     46          1           0       -3.795930   -0.553667    1.232320
     47          1           0       -3.937541   -0.999227   -0.488310
     48          1           0       -6.237710   -0.214645    0.992790
     49          1           0       -6.055080    0.190015   -0.742020
     50          1           0       -6.220888    2.441535    0.079160
     51          1           0       -5.522538    2.017574    1.678130
     52          8           0        1.691928   -2.210662   -0.360320
     53          6           0        2.605448   -2.098403    0.498070
     54          6           0        2.452969   -2.052873    2.006310
     55          7           0        3.927589   -2.052094    0.195980
     56          6           0        3.825499   -1.574384    2.499550
     57          6           0        4.790169   -2.007925    1.378880
     58          6           0        4.455248   -2.249885   -1.138280
     59          1           0        3.600978   -2.328574   -1.834130
     60          1           0        5.056858   -3.181725   -1.184050
     61          1           0        5.101029   -1.398585   -1.433980
     62          1           0        2.223768   -3.088533    2.340250
     63          1           0        1.595909   -1.419042    2.300750
     64          1           0        4.114089   -1.993614    3.480080
     65          1           0        3.826600   -0.469994    2.584060
     66          1           0        5.623249   -1.294866    1.217560
     67          1           0        5.232028   -3.013465    1.561030
 ---------------------------------------------------------------------
 Rotational constants (GHZ):           0.1071235           0.0810162           0.0697865
 General basis read from cards:  (5D, 7F)
 ======================================================================================================
                                       Pseudopotential Parameters
 ======================================================================================================
  Center     Atomic      Valence      Angular      Power
  Number     Number     Electrons     Momentum     of R      Exponent        Coefficient   SO-Coeffient
 ======================================================================================================
    1         82            4
                                      G and up 
                                                     0      376.5803786       -0.17896050    0.00000000
                                                     1       86.4840014      -54.39723370    0.00000000
                                                     2       26.6784276     -199.70617590    0.00000000
                                                     2        9.4261986      -79.12239410    0.00000000
                                                     2        2.7101719      -24.98690200    0.00000000
                                                     2        0.8792031       -4.43979390    0.00000000
                                      S - G
                                                     0      132.4248796        2.81153860    0.00000000
                                                     1       47.2376044       65.03672050    0.00000000
                                                     2       17.6312727      212.78685450    0.00000000
                                                     2        5.4744712       72.10531750    0.00000000
                                                     2        1.2634856       33.01409400    0.00000000
                                                     2        0.7651447       -5.77084610    0.00000000
                                      P - G
                                                     0       67.8966454        4.87549110    0.00000000
                                                     1       24.9898225       63.91481020    0.00000000
                                                     2       10.7052939      148.10643580    0.00000000
                                                     2        3.2792568       47.31063010    0.00000000
                                                     2        0.8452522       21.03067020    0.00000000
                                                     2        0.6416245       -7.09307720    0.00000000
                                      D - G
                                                     0       68.8336005        3.21613880    0.00000000
                                                     1       24.2815874       55.73860860    0.00000000
                                                     2        9.4532762      121.41683510    0.00000000
                                                     2        2.4788185       19.34560640    0.00000000
                                                     2        2.4789161       15.36751680    0.00000000
                                                     2        0.5551738        6.12987240    0.00000000
                                      F - G
                                                     0      128.1021322        4.13536820    0.00000000
                                                     1       54.8029154       67.51284460    0.00000000
                                                     2       24.5529308      258.73731070    0.00000000
                                                     2        8.1144792      113.24782640    0.00000000
                                                     2        1.6931290       34.16802010    0.00000000
                                                     2        0.7670500       -6.55319560    0.00000000
    2         35            7
                                      F and up 
                                                     1      213.6143969      -28.00000000    0.00000000
                                                     2       41.0585380     -134.92688520    0.00000000
                                                     2        8.7086530      -41.92719130    0.00000000
                                                     2        2.6074661       -5.93364200    0.00000000
                                      S - F
                                                     0       54.1980682        3.00000000    0.00000000
                                                     1       32.9053558       27.34306420    0.00000000
                                                     2       13.6744890      118.80288470    0.00000000
                                                     2        3.0341152       43.43548760    0.00000000
                                      P - F
                                                     0       54.2563340        5.00000000    0.00000000
                                                     1       26.0095593       25.05042520    0.00000000
                                                     2       28.2012995       92.61574630    0.00000000
                                                     2        9.4341061       95.82490160    0.00000000
                                                     2        2.5321764       26.26849830    0.00000000
                                      D - F
                                                     0       87.6328721        3.00000000    0.00000000
                                                     1       61.7373377       22.55335570    0.00000000
                                                     2       32.4385104      178.12419880    0.00000000
                                                     2        8.7537199       76.99241620    0.00000000
                                                     2        1.6633189        9.48182700    0.00000000
    3         35            7
                                      F and up 
                                                     1      213.6143969      -28.00000000    0.00000000
                                                     2       41.0585380     -134.92688520    0.00000000
                                                     2        8.7086530      -41.92719130    0.00000000
                                                     2        2.6074661       -5.93364200    0.00000000
                                      S - F
                                                     0       54.1980682        3.00000000    0.00000000
                                                     1       32.9053558       27.34306420    0.00000000
                                                     2       13.6744890      118.80288470    0.00000000
                                                     2        3.0341152       43.43548760    0.00000000
                                      P - F
                                                     0       54.2563340        5.00000000    0.00000000
                                                     1       26.0095593       25.05042520    0.00000000
                                                     2       28.2012995       92.61574630    0.00000000
                                                     2        9.4341061       95.82490160    0.00000000
                                                     2        2.5321764       26.26849830    0.00000000
                                      D - F
                                                     0       87.6328721        3.00000000    0.00000000
                                                     1       61.7373377       22.55335570    0.00000000
                                                     2       32.4385104      178.12419880    0.00000000
                                                     2        8.7537199       76.99241620    0.00000000
                                                     2        1.6633189        9.48182700    0.00000000
    4          8
                                   No pseudopotential on this center.
    5          6
                                   No pseudopotential on this center.
    6          6
                                   No pseudopotential on this center.
    7          7
                                   No pseudopotential on this center.
    8          6
                                   No pseudopotential on this center.
    9          6
                                   No pseudopotential on this center.
   10          6
                                   No pseudopotential on this center.
   11          1
                                   No pseudopotential on this center.
   12          1
                                   No pseudopotential on this center.
   13          1
                                   No pseudopotential on this center.
   14          1
                                   No pseudopotential on this center.
   15          1
                                   No pseudopotential on this center.
   16          1
                                   No pseudopotential on this center.
   17          1
                                   No pseudopotential on this center.
   18          1
                                   No pseudopotential on this center.
   19          1
                                   No pseudopotential on this center.
   20          8
                                   No pseudopotential on this center.
   21          6
                                   No pseudopotential on this center.
   22          6
                                   No pseudopotential on this center.
   23          7
                                   No pseudopotential on this center.
   24          6
                                   No pseudopotential on this center.
   25          6
                                   No pseudopotential on this center.
   26          6
                                   No pseudopotential on this center.
   27          1
                                   No pseudopotential on this center.
   28          1
                                   No pseudopotential on this center.
   29          1
                                   No pseudopotential on this center.
   30          1
                                   No pseudopotential on this center.
   31          1
                                   No pseudopotential on this center.
   32          1
                                   No pseudopotential on this center.
   33          1
                                   No pseudopotential on this center.
   34          1
                                   No pseudopotential on this center.
   35          1
                                   No pseudopotential on this center.
   36          8
                                   No pseudopotential on this center.
   37          6
                                   No pseudopotential on this center.
   38          6
                                   No pseudopotential on this center.
   39          7
                                   No pseudopotential on this center.
   40          6
                                   No pseudopotential on this center.
   41          6
                                   No pseudopotential on this center.
   42          6
                                   No pseudopotential on this center.
   43          1
                                   No pseudopotential on this center.
   44          1
                                   No pseudopotential on this center.
   45          1
                                   No pseudopotential on this center.
   46          1
                                   No pseudopotential on this center.
   47          1
                                   No pseudopotential on this center.
   48          1
                                   No pseudopotential on this center.
   49          1
                                   No pseudopotential on this center.
   50          1
                                   No pseudopotential on this center.
   51          1
                                   No pseudopotential on this center.
   52          8
                                   No pseudopotential on this center.
   53          6
                                   No pseudopotential on this center.
   54          6
                                   No pseudopotential on this center.
   55          7
                                   No pseudopotential on this center.
   56          6
                                   No pseudopotential on this center.
   57          6
                                   No pseudopotential on this center.
   58          6
                                   No pseudopotential on this center.
   59          1
                                   No pseudopotential on this center.
   60          1
                                   No pseudopotential on this center.
   61          1
                                   No pseudopotential on this center.
   62          1
                                   No pseudopotential on this center.
   63          1
                                   No pseudopotential on this center.
   64          1
                                   No pseudopotential on this center.
   65          1
                                   No pseudopotential on this center.
   66          1
                                   No pseudopotential on this center.
   67          1
                                   No pseudopotential on this center.
 ======================================================================================================
 There are   624 symmetry adapted cartesian basis functions of A   symmetry.
 There are   596 symmetry adapted basis functions of A   symmetry.
   596 basis functions,  1212 primitive gaussians,   624 cartesian basis functions
   117 alpha electrons      117 beta electrons
       nuclear repulsion energy      3293.6493681052 Hartrees.
 NAtoms=   67 NActive=   67 NUniq=   67 SFac= 1.00D+00 NAtFMM=   60 NAOKFM=T Big=T
 Integral buffers will be    131072 words long.
 Raffenetti 2 integral format.
 Two-electron integral symmetry is turned on.
 Nuclear repulsion after empirical dispersion term =     3293.5560650831 Hartrees.
 Using the following non-standard input for PCM:
 eps=32.55
 --- end of non-standard input.
 ------------------------------------------------------------------------------
 Polarizable Continuum Model (PCM)
 =================================
 Model                : PCM.
 Atomic radii         : UFF (Universal Force Field).
 Polarization charges : Total charges.
 Charge compensation  : None.
 Solution method      : On-the-fly selection.
 Cavity type          : Scaled VdW (van der Waals Surface) (Alpha=1.100).
 Cavity algorithm     : GePol (No added spheres)
                        Default sphere list used, NSphG=   67.
                        Lebedev-Laikov grids with approx.  5.0 points / Ang**2.
                        Smoothing algorithm: York/Karplus (Gamma=1.0000).
                        Polarization charges: spherical gaussians, with
                                              point-specific exponents (IZeta= 3).
                        Self-potential: point-specific (ISelfS= 7).
                        Self-field    : sphere-specific E.n sum rule (ISelfD= 2).
 1st derivatives      : Analytical E(r).r(x)/FMM algorithm (CHGder, D1EAlg=3).
                        Cavity 1st derivative terms included.
 Solvent              : Water, Eps=  32.550000 Eps(inf)=   1.777849
 ------------------------------------------------------------------------------
 One-electron integrals computed using PRISM.
   1 Symmetry operations used in ECPInt.
 ECPInt:  NShTT=   41616 NPrTT=  289035 LenC2=   35953 LenP2D=  128972.
 LDataN:  DoStor=T MaxTD1= 6 Len=  172
 NBasis=   596 RedAO= T EigKep=  2.12D-03  NBF=   596
 NBsUse=   596 1.00D-06 EigRej= -1.00D+00 NBFU=   596
 Defaulting to unpruned grid for atomic number  82.
 ExpMin= 5.98D-02 ExpMax= 1.17D+04 ExpMxC= 4.01D+02 IAcc=3 IRadAn=         5 AccDes= 0.00D+00
 Harris functional with IExCor= 1009 and IRadAn=       5 diagonalized for initial guess.
 HarFok:  IExCor= 1009 AccDes= 0.00D+00 IRadAn=         5 IDoV= 1 UseB2=F ITyADJ=14
 ICtDFT=  3500011 ScaDFX=  1.000000  1.000000  1.000000  1.000000
 Defaulting to unpruned grid for atomic number  82.
 FoFCou: FMM=F IPFlag=           0 FMFlag=      100000 FMFlg1=        2001
         NFxFlg=           0 DoJE=T BraDBF=F KetDBF=T FulRan=T
         wScrn=  0.000000 ICntrl=       500 IOpCl=  0 I1Cent=   200000004 NGrid=           0
         NMat0=    1 NMatS0=      1 NMatT0=    0 NMatD0=    1 NMtDS0=    0 NMtDT0=    0
 Petite list used in FoFCou.
 Requested convergence on RMS density matrix=1.00D-08 within 128 cycles.
 Requested convergence on MAX density matrix=1.00D-06.
 Requested convergence on             energy=1.00D-06.
 No special actions if energy rises.
 Defaulting to unpruned grid for atomic number  82.
 Defaulting to unpruned grid for atomic number  82.
 Defaulting to unpruned grid for atomic number  82.
 Defaulting to unpruned grid for atomic number  82.
 Inv3:  Mode=1 IEnd=    66467547.
 Iteration    1 A*A^-1 deviation from unit magnitude is 3.77D-15 for   1267.
 Iteration    1 A*A^-1 deviation from orthogonality  is 3.11D-15 for   3647   1317.
 Iteration    1 A^-1*A deviation from unit magnitude is 3.77D-15 for   3639.
 Iteration    1 A^-1*A deviation from orthogonality  is 2.19D-14 for   3274   3263.
 EnCoef did     1 forward-backward iterations
 Error on total polarization charges =  0.01882
 SCF Done:  E(RPBE-PBE) =  -1332.36250009     A.U. after   14 cycles
            NFock= 14  Conv=0.65D-08     -V/T= 2.0226

 **********************************************************************

            Population analysis using the SCF Density.

 **********************************************************************

 Orbital symmetries:
       Occupied  (A) (A) (A) (A) (A) (A) (A) (A) (A) (A) (A) (A)
                 (A) (A) (A) (A) (A) (A) (A) (A) (A) (A) (A) (A)
                 (A) (A) (A) (A) (A) (A) (A) (A) (A) (A) (A) (A)
                 (A) (A) (A) (A) (A) (A) (A) (A) (A) (A) (A) (A)
                 (A) (A) (A) (A) (A) (A) (A) (A) (A) (A) (A) (A)
                 (A) (A) (A) (A) (A) (A) (A) (A) (A) (A) (A) (A)
                 (A) (A) (A) (A) (A) (A) (A) (A) (A) (A) (A) (A)
                 (A) (A) (A) (A) (A) (A) (A) (A) (A) (A) (A) (A)
                 (A) (A) (A) (A) (A) (A) (A) (A) (A) (A) (A) (A)
                 (A) (A) (A) (A) (A) (A) (A) (A) (A)
       Virtual   (A) (A) (A) (A) (A) (A) (A) (A) (A) (A) (A) (A)
                 (A) (A) (A) (A) (A) (A) (A) (A) (A) (A) (A) (A)
                 (A) (A) (A) (A) (A) (A) (A) (A) (A) (A) (A) (A)
                 (A) (A) (A) (A) (A) (A) (A) (A) (A) (A) (A) (A)
                 (A) (A) (A) (A) (A) (A) (A) (A) (A) (A) (A) (A)
                 (A) (A) (A) (A) (A) (A) (A) (A) (A) (A) (A) (A)
                 (A) (A) (A) (A) (A) (A) (A) (A) (A) (A) (A) (A)
                 (A) (A) (A) (A) (A) (A) (A) (A) (A) (A) (A) (A)
                 (A) (A) (A) (A) (A) (A) (A) (A) (A) (A) (A) (A)
                 (A) (A) (A) (A) (A) (A) (A) (A) (A) (A) (A) (A)
                 (A) (A) (A) (A) (A) (A) (A) (A) (A) (A) (A) (A)
                 (A) (A) (A) (A) (A) (A) (A) (A) (A) (A) (A) (A)
                 (A) (A) (A) (A) (A) (A) (A) (A) (A) (A) (A) (A)
                 (A) (A) (A) (A) (A) (A) (A) (A) (A) (A) (A) (A)
                 (A) (A) (A) (A) (A) (A) (A) (A) (A) (A) (A) (A)
                 (A) (A) (A) (A) (A) (A) (A) (A) (A) (A) (A) (A)
                 (A) (A) (A) (A) (A) (A) (A) (A) (A) (A) (A) (A)
                 (A) (A) (A) (A) (A) (A) (A) (A) (A) (A) (A) (A)
                 (A) (A) (A) (A) (A) (A) (A) (A) (A) (A) (A) (A)
                 (A) (A) (A) (A) (A) (A) (A) (A) (A) (A) (A) (A)
                 (A) (A) (A) (A) (A) (A) (A) (A) (A) (A) (A) (A)
                 (A) (A) (A) (A) (A) (A) (A) (A) (A) (A) (A) (A)
                 (A) (A) (A) (A) (A) (A) (A) (A) (A) (A) (A) (A)
                 (A) (A) (A) (A) (A) (A) (A) (A) (A) (A) (A) (A)
                 (A) (A) (A) (A) (A) (A) (A) (A) (A) (A) (A) (A)
                 (A) (A) (A) (A) (A) (A) (A) (A) (A) (A) (A) (A)
                 (A) (A) (A) (A) (A) (A) (A) (A) (A) (A) (A) (A)
                 (A) (A) (A) (A) (A) (A) (A) (A) (A) (A) (A) (A)
                 (A) (A) (A) (A) (A) (A) (A) (A) (A) (A) (A) (A)
                 (A) (A) (A) (A) (A) (A) (A) (A) (A) (A) (A) (A)
                 (A) (A) (A) (A) (A) (A) (A) (A) (A) (A) (A) (A)
                 (A) (A) (A) (A) (A) (A) (A) (A) (A) (A) (A) (A)
                 (A) (A) (A) (A) (A) (A) (A) (A) (A) (A) (A) (A)
                 (A) (A) (A) (A) (A) (A) (A) (A) (A) (A) (A) (A)
                 (A) (A) (A) (A) (A) (A) (A) (A) (A) (A) (A) (A)
                 (A) (A) (A) (A) (A) (A) (A) (A) (A) (A) (A) (A)
                 (A) (A) (A) (A) (A) (A) (A) (A) (A) (A) (A) (A)
                 (A) (A) (A) (A) (A) (A) (A) (A) (A) (A) (A) (A)
                 (A) (A) (A) (A) (A) (A) (A) (A) (A) (A) (A) (A)
                 (A) (A) (A) (A) (A) (A) (A) (A) (A) (A) (A)
 The electronic state is 1-A.
 Alpha  occ. eigenvalues --  -18.76212 -18.76037 -18.75643 -18.75360 -14.04935
 Alpha  occ. eigenvalues --  -14.04633 -14.04624 -14.04526 -10.00243  -9.99976
 Alpha  occ. eigenvalues --   -9.99857  -9.99836  -9.94193  -9.94067  -9.93948
 Alpha  occ. eigenvalues --   -9.93937  -9.93675  -9.93411  -9.93244  -9.93031
 Alpha  occ. eigenvalues --   -9.91167  -9.91024  -9.90826  -9.90811  -9.90799
 Alpha  occ. eigenvalues --   -9.90772  -9.90509  -9.90405  -0.96278  -0.95898
 Alpha  occ. eigenvalues --   -0.95621  -0.95511  -0.88048  -0.87789  -0.87675
 Alpha  occ. eigenvalues --   -0.87629  -0.73645  -0.73327  -0.73273  -0.73228
 Alpha  occ. eigenvalues --   -0.65764  -0.65596  -0.65496  -0.65430  -0.63772
 Alpha  occ. eigenvalues --   -0.63437  -0.63377  -0.63256  -0.60820  -0.60502
 Alpha  occ. eigenvalues --   -0.55694  -0.55421  -0.55324  -0.55263  -0.49576
 Alpha  occ. eigenvalues --   -0.49096  -0.48849  -0.48802  -0.47440  -0.46145
 Alpha  occ. eigenvalues --   -0.45929  -0.45534  -0.45483  -0.45114  -0.44788
 Alpha  occ. eigenvalues --   -0.44628  -0.43102  -0.41654  -0.41385  -0.40859
 Alpha  occ. eigenvalues --   -0.40571  -0.39494  -0.39080  -0.39005  -0.38904
 Alpha  occ. eigenvalues --   -0.37891  -0.37763  -0.37318  -0.37109  -0.36896
 Alpha  occ. eigenvalues --   -0.36771  -0.36480  -0.36357  -0.35943  -0.35838
 Alpha  occ. eigenvalues --   -0.35589  -0.34521  -0.34334  -0.34053  -0.33964
 Alpha  occ. eigenvalues --   -0.33758  -0.33700  -0.33518  -0.33257  -0.32824
 Alpha  occ. eigenvalues --   -0.31868  -0.31774  -0.31581  -0.31501  -0.29540
 Alpha  occ. eigenvalues --   -0.29372  -0.29157  -0.28959  -0.24668  -0.24088
 Alpha  occ. eigenvalues --   -0.23206  -0.22667  -0.22544  -0.22340  -0.22103
 Alpha  occ. eigenvalues --   -0.21955  -0.21728  -0.20702  -0.20542  -0.20281
 Alpha  occ. eigenvalues --   -0.20192  -0.18540
 Alpha virt. eigenvalues --   -0.04028  -0.03423  -0.03238  -0.02775  -0.00901
 Alpha virt. eigenvalues --   -0.00388   0.00575   0.00907   0.02208   0.03318
 Alpha virt. eigenvalues --    0.03943   0.04046   0.05404   0.05572   0.05877
 Alpha virt. eigenvalues --    0.06366   0.06747   0.07442   0.07652   0.08283
 Alpha virt. eigenvalues --    0.08292   0.08853   0.09171   0.09654   0.10046
 Alpha virt. eigenvalues --    0.10322   0.10404   0.10814   0.10976   0.11267
 Alpha virt. eigenvalues --    0.11528   0.12028   0.12222   0.12385   0.12499
 Alpha virt. eigenvalues --    0.12645   0.12879   0.13045   0.13203   0.13451
[...]
 000092,0.00000083,-0.00000175,-0.00000048,0.00000017,0.00000204,0.0000
 0089,-0.00000031,0.00000148,-0.00000011,0.00000550,-0.00000095,0.00000
 106,0.00000093,-0.00000041,0.00000055,-0.00000115,-0.00000013,0.000000
 22,-0.00000122,0.00000043,-0.00000028,-0.00000154,0.00000050,0.0000003
 5,-0.00000184,-0.00000016,0.00000178,-0.00027402,0.00001974,-0.0004731
 0,-0.00022739,-0.00025097,0.00081633,-0.00085257,-0.00836642,0.0002983
 4,0.00015523,0.00028456,-0.00044668,-0.00002399,-0.30011752,-0.0166405
 8,0.00081001,-0.00760036,0.00090935,-0.00020065,-0.00009125,0.00012361
 ,-0.00000969,0.00000815,-0.00006613,0.00004145,-0.00002038,0.00003414,
 0.00003046,0.00000666,-0.00000437,-0.00152482,0.00052955,-0.00133113,0
 .00042600,0.00114776,0.00008525,-0.00026540,-0.01032825,-0.00153731,0.
 00110104,0.32376009,-0.00015906,-0.00019194,-0.00007225,0.00003344,0.0
 0004504,0.00003366,-0.00000651,0.00001374,-0.00003399,0.00002381,0.000
 01343,0.00001703,-0.00003355,-0.00000242,-0.00003152,0.00000789,0.0000
 1075,-0.00001584,0.00000978,-0.00000068,0.00001890,0.00000062,0.000007
 12,-0.00001090,0.00000110,-0.00000445,-0.00002501,-0.00001597,0.000006
 75,-0.00000599,-0.00000166,-0.00000044,-0.00000293,0.00000035,0.000003
 52,-0.00000646,0.00000206,-0.00000285,0.00000454,0.00000803,-0.0000319
 0,-0.00002397,0.00000548,-0.00000385,0.00002177,0.00000500,-0.00000049
 ,-0.00001373,-0.00000245,-0.00000467,0.00000793,0.00000285,-0.00000144
 ,0.00001115,-0.00000145,0.00001673,-0.00000411,0.00039601,-0.00029638,
 0.00019703,-0.00013178,0.00047956,0.00018503,0.00004315,-0.00001781,-0
 .00007223,-0.00008130,-0.00012976,-0.00009684,0.00002067,-0.00001343,-
 0.00004140,0.00002145,0.00015804,0.00012004,-0.00012402,0.00034119,0.0
 0045037,0.00002436,0.00037685,-0.00067822,-0.00001541,0.00007395,0.000
 05273,0.00006971,-0.00024784,-0.00004017,0.00001807,-0.00002634,-0.000
 01072,-0.00000634,-0.00001319,-0.00000519,0.00002060,-0.00002225,-0.00
 000354,0.00000431,-0.00000724,0.00000919,-0.00001047,-0.00002649,-0.00
 000640,-0.00000302,-0.00002028,-0.00004013,0.00004258,0.00000055,0.000
 00077,-0.00004436,0.00000949,0.00001260,0.00000321,0.00000161,-0.00000
 255,0.00001371,-0.00001037,-0.00000154,-0.00000050,0.00000062,-0.00000
 081,-0.00000478,-0.00000214,0.00000182,0.00000046,0.00000210,0.0000009
 0,-0.00000277,0.00000235,-0.00000163,-0.00000049,-0.00000123,-0.000000
 52,0.00000144,-0.00000114,0.00000002,-0.00000002,0.00000015,0.00000010
 ,-0.00000132,0.00000025,0.00000002,0.00000138,0.00000018,-0.00000018,0
 .00000066,-0.00000019,0.00000033,0.00000149,-0.00000037,-0.00000017,0.
 00000158,0.00000009,-0.00000158,-0.00025214,0.00014755,-0.00022527,0.0
 0008438,-0.00036405,0.00028776,0.00021444,-0.00822770,-0.00062626,0.00
 092292,0.00006623,0.00048996,-0.00150232,-0.01328379,-0.04571345,0.001
 21876,-0.02238349,-0.00240410,-0.00005711,0.00021602,-0.00036773,0.000
 00791,0.00005539,-0.00009589,-0.00007131,0.00005769,0.00009534,-0.0000
 1613,-0.00002110,-0.00005076,-0.00071626,-0.00038633,0.00007218,0.0002
 5351,0.00030717,0.00067054,0.00035797,0.02555101,0.00237560,-0.0017967
 4,0.01900936,0.04684726,0.00072759,-0.00042984,0.00011490,-0.00005653,
 -0.00007685,-0.00005625,-0.00013030,0.00000674,0.00008733,0.00006731,0
 .00009323,-0.00007602,-0.00005205,-0.00012908,0.00000304,0.00001218,0.
 00001773,0.00003173,0.00000518,0.00006089,-0.00000356,-0.00001381,-0.0
 0000758,-0.00001222,-0.00001959,-0.00000481,0.00000522,0.00001508,-0.0
 0000390,-0.00000157,0.00000139,-0.00000580,0.00000668,-0.00000429,0.00
 000177,0.00000432,-0.00000297,0.00000560,-0.00000333,-0.00000862,-0.00
 005973,0.00000885,0.00000527,-0.00000221,0.00001494,0.00000438,0.00000
 567,0.00000035,0.00000503,0.00000756,-0.00000336,0.00000200,0.00000587
 ,-0.00000143,0.00000459,0.00000448,0.00000432,0.00000065,0.00027389,0.
 00006044,-0.00007910,-0.00027387,-0.00012505,0.00000035,0.00002203,0.0
 0000985,0.00006362,0.00005016,0.00000742,-0.00000374,-0.00000758,-0.00
 000252,0.00003480,-0.00000279,0.00000908,-0.00000818,0.00010375,0.0000
 4687,-0.00016422,0.00008627,-0.00011263,0.00000301,0.00001736,0.000004
 71,0.00001091,-0.00002016,-0.00001333,0.00000190,-0.00000080,-0.000003
 63,0.00000360,-0.00000695,-0.00000361,0.00000323,0.00000496,0.00000280
 ,0.00000134,0.00000225,-0.00000130,-0.00000012,0.00000785,0.00000153,-
 0.00000291,0.00000643,0.00000692,-0.00024691,0.00013237,0.00001073,0.0
 0019639,0.00000502,-0.00006128,-0.00001404,-0.00000749,-0.00000010,-0.
 00007749,0.00004641,0.00001580,0.00000479,-0.00000301,0.00000064,0.000
 01628,0.00001531,-0.00000195,-0.00001207,-0.00001739,0.00000496,0.0000
 0380,-0.00000726,-0.00000028,0.00000161,0.00000654,0.00000253,-0.00000
 211,0.00000558,-0.00000097,0.00000854,-0.00000108,-0.00000027,0.000002
 88,-0.00000147,0.00000214,-0.00000460,-0.00000029,0.00000103,-0.000003
 66,0.00000097,-0.00000182,-0.00000648,0.00000165,0.00000084,-0.0000073
 1,-0.00000142,0.00000581,-0.00256436,0.00086326,-0.00104926,0.00218602
 ,-0.00244977,-0.00191620,-0.00105800,0.00040450,0.00230053,-0.01872973
 ,-0.00923884,-0.00035598,-0.01073108,-0.00790248,0.00171709,-0.1780677
 9,-0.12089827,0.02805020,0.00029581,0.00063316,0.00113288,-0.00006932,
 0.00017733,-0.00003269,0.00013143,-0.00012553,-0.00012197,0.00006882,-
 0.00013595,-0.00076718,-0.00046977,-0.00006384,0.00001619,-0.00031504,
 -0.00031975,-0.00013684,-0.00068323,0.00009005,0.00046242,0.00083848,-
 0.00017546,-0.00038975,0.20086920,0.00027554,-0.00009220,-0.00000304,-
 0.00002039,-0.00002731,-0.00002111,0.00000778,-0.00001443,0.00003607,0
 .00000488,0.00002338,-0.00002257,0.00000776,-0.00004282,0.00000438,-0.
 00000573,0.00000522,0.00001617,-0.00000573,0.00002102,-0.00000321,-0.0
 0000435,-0.00000495,-0.00000637,-0.00000566,-0.00000106,0.00000502,0.0
 0000898,-0.00000246,0.00000128,0.00000057,-0.00000163,0.00000245,-0.00
 000220,0.00000049,0.00000286,-0.00000166,0.00000260,-0.00000204,-0.000
 00091,-0.00002369,0.00002516,0.00000020,0.00000003,-0.00000019,0.00000
 029,0.00000381,0.00000188,0.00000192,0.00000564,-0.00000423,-0.0000004
 5,0.00000287,-0.00000259,0.00000137,-0.00000226,0.00000179,-0.00008550
 ,0.00009371,0.00001043,0.00000712,-0.00008134,-0.00004011,-0.00000462,
 0.00001105,0.00001314,0.00000756,0.00006144,0.00002109,-0.00000773,0.0
 0000294,0.00001132,-0.00000788,-0.00003365,-0.00003105,-0.00000046,-0.
 00001787,-0.00008720,-0.00002034,-0.00015082,0.00007833,-0.00002932,-0
 .00000853,-0.00001888,-0.00000849,0.00005735,0.00000343,-0.00000254,0.
 00000449,0.00000095,0.00000114,-0.00000070,-0.00000115,-0.00000466,0.0
 0000595,0.00000096,-0.00000050,0.00000179,-0.00000233,0.00000201,0.000
 00694,0.00000099,0.00000034,0.00000417,0.00000773,-0.00008148,0.000039
 62,0.00000416,0.00006696,0.00000136,-0.00002093,-0.00000383,-0.0000030
 8,0.00000086,-0.00002549,0.00001503,0.00000479,0.00000134,-0.00000104,
 0.00000111,0.00000565,0.00000494,-0.00000085,-0.00000345,-0.00000543,0
 .00000124,0.00000178,-0.00000265,0.00000025,0.00000054,0.00000206,0.00
 000085,-0.00000088,0.00000180,-0.00000031,0.00000050,-0.00000056,-0.00
 000147,0.00000101,-0.00000047,0.00000056,-0.00000155,-0.00000014,0.000
 00023,-0.00000089,0.00000021,-0.00000056,-0.00000220,0.00000048,0.0000
 0025,-0.00000240,-0.00000043,0.00000195,-0.00085058,-0.00015097,-0.000
 56765,0.00290068,-0.00016422,-0.00002229,0.00180051,0.00042518,-0.0015
 3687,-0.00065905,0.00353758,-0.00165497,0.00960787,0.00551128,-0.00171
 700,-0.12651102,-0.15555813,0.02846658,-0.00001584,0.00055548,0.000040
 98,0.00009014,0.00007075,-0.00007058,-0.00001343,-0.00032744,0.0000887
 4,-0.00014065,-0.00025885,-0.00047196,0.00044309,-0.00001167,0.0001174
 2,0.00030807,0.00009564,0.00010692,-0.00007504,0.00011834,-0.00014432,
 0.00035528,0.00149455,0.00003759,0.13198724,0.16250150,0.00050142,-0.0
 0032916,-0.00008680,-0.00002995,-0.00005969,-0.00003819,0.00011314,-0.
 00004990,0.00010181,0.00005248,0.00006079,-0.00004916,-0.00005459,-0.0
 0008718,0.00000235,0.00001612,0.00000998,0.00001978,0.00000955,0.00003
 278,-0.00000121,-0.00000189,-0.00000298,-0.00000609,-0.00001108,-0.000
 00205,0.00000338,0.00000570,-0.00000271,-0.00000183,0.00000041,-0.0000
 0444,0.00000534,-0.00000192,0.00000087,0.00000180,-0.00000071,0.000003
 36,-0.00000192,-0.00000507,-0.00002214,0.00001065,-0.00000097,0.000000
 59,-0.00000251,0.00000219,0.00000051,0.00000145,0.00000197,0.00000258,
 -0.00000112,0.00000205,0.00000234,-0.00000077,0.00000345,0.00000221,0.
 00000132,0.00002376,0.00001303,0.00007422,-0.00000917,-0.00001388,-0.0
 0000328,0.00000020,0.00000875,-0.00000325,-0.00000064,0.00001754,-0.00
 000668,0.00000091,-0.00000289,0.00000158,0.00000485,0.00000376,-0.0000
 0087,-0.00000472,-0.00000080,0.00002966,-0.00002604,-0.00003922,-0.000
 02501,0.00000187,0.00000454,-0.00000505,0.00000352,-0.00001013,-0.0000
 0211,-0.00000055,-0.00000024,0.00000016,-0.00000126,-0.00000711,-0.000
 00389,0.00000101,0.00000130,0.00000081,-0.00000002,-0.00000019,-0.0000
 0054,0.00000048,0.00000099,0.00000099,0.00000082,0.00000072,0.00000108
 ,-0.00024078,0.00013869,0.00001080,0.00018632,0.00001957,-0.00006171,-
 0.00000838,-0.00001285,0.00000141,-0.00007278,0.00003856,0.00001625,0.
 00000344,-0.00000320,0.00000362,0.00001422,0.00001486,-0.00000144,-0.0
 0001087,-0.00001491,0.00000393,0.00000274,-0.00000637,-0.00000051,0.00
 000120,0.00000559,0.00000216,-0.00000164,0.00000465,-0.00000061,-0.000
 00328,-0.00000005,-0.00000472,0.00000175,-0.00000072,0.00000185,-0.000
 00425,-0.00000017,0.00000046,-0.00000163,0.00000031,-0.00000122,-0.000
 00574,0.00000073,0.00000099,-0.00000674,-0.00000118,0.00000517,-0.0034
 8667,0.00123187,-0.00058764,0.00265653,-0.00247542,-0.00450008,0.00158
 046,-0.00153409,-0.00309768,-0.02836410,-0.01797513,0.00011641,0.01636
 123,0.01381582,-0.00062069,0.03436129,0.03139380,-0.05102748,-0.000754
 55,-0.00079744,0.00225836,0.00000293,0.00016975,0.00019003,0.00000133,
 0.00011218,-0.00026855,0.00060267,0.00057469,-0.00000979,0.00021104,0.
 00018852,0.00026358,0.00065851,0.00046064,0.00054907,0.00020402,-0.000
 10640,-0.00069731,-0.00061826,0.00016268,0.00114803,-0.02793095,-0.027
 57224,0.05585576,0.00075941,-0.00035241,0.00009090,-0.00006847,-0.0000
 7697,-0.00005823,-0.00008622,-0.00000564,0.00007927,0.00002595,0.00007
 623,-0.00006528,0.00000888,-0.00012068,0.00000802,-0.00000225,0.000018
 79,0.00004750,-0.00001201,0.00005931,-0.00000814,-0.00001708,-0.000012
 67,-0.00001653,-0.00001596,-0.00000529,0.00000796,0.00002164,-0.000004
 95,0.00000141,0.00000198,-0.00000514,0.00000599,-0.00000546,0.00000199
 ,0.00000623,-0.00000448,0.00000674,-0.00000433,-0.00001026,-0.00007816
 ,0.00002966,0.00000467,-0.00000341,0.00001487,0.00000446,0.00000588,0.
 00000373,0.00000653,0.00001426,-0.00000798,-0.00000034,0.00000807,-0.0
 0000333,0.00000424,0.00000026,0.00000576,-0.00013033,0.00036354,0.0000
 6062,-0.00006648,-0.00034372,-0.00015804,-0.00000857,0.00003126,0.0000
 2644,0.00007802,0.00009659,0.00002470,-0.00001089,-0.00000261,0.000009
 08,0.00002206,-0.00004044,-0.00001841,0.00000826,0.00002844,-0.0000314
 9,-0.00005084,-0.00001969,0.00002483,-0.00000642,-0.00001616,-0.000007
 25,0.,0.00002827,-0.00000791,-0.00000090,0.00000649,-0.00000025,0.0000
 0637,-0.00000389,-0.00000291,-0.00000155,0.00001051,0.00000370,0.00000
 020,0.00000366,-0.00000358,0.00000193,0.00001269,0.00000240,-0.0000020
 9,0.00001003,0.00001386,-0.00019839,0.00009604,0.00001211,0.00016317,0
 .00000250,-0.00004920,-0.00001138,-0.00000671,0.00000131,-0.00006276,0
 .00003680,0.00001191,0.00000377,-0.00000255,0.00000108,0.00001386,0.00
 001226,-0.00000239,-0.00000870,-0.00001322,0.00000335,0.00000398,-0.00
 000640,0.00000042,0.00000128,0.00000510,0.00000203,-0.00000197,0.00000
 444,-0.00000078,0.00000716,-0.00000112,0.00000012,0.00000271,-0.000001
 17,0.00000094,-0.00000404,-0.00000026,0.00000092,-0.00000282,0.0000007
 5,-0.00000150,-0.00000543,0.00000122,0.00000072,-0.00000582,-0.0000010
 3,0.00000479,-0.00278709,-0.00160334,-0.00104861,0.00408233,0.00341293
 ,-0.00229692,0.00008046,0.00039569,-0.00019178,-0.01617871,0.01615634,
 -0.01020223,-0.00445944,0.01496863,-0.00234300,-0.07545497,0.07761917,
 -0.00989229,-0.00017483,-0.00000238,0.00131608,-0.00005209,-0.00005620
 ,-0.00001426,0.00030713,-0.00020076,-0.00047136,0.00010480,-0.00001722
 ,-0.00032756,0.00001091,-0.00024551,0.00016795,-0.00019817,-0.00029762
 ,0.00017176,0.00115529,-0.00036270,-0.00044400,-0.00161110,0.00065001,
 0.00160386,0.00801197,-0.01929125,0.00406360,0.08681488,-0.00045407,0.
 00018941,-0.00009690,0.00004295,0.00006029,0.00004245,0.00009503,0.000
 00239,-0.00005513,-0.00002203,-0.00004800,0.00004554,0.00000477,0.0000
 7031,-0.00000401,0.00000296,-0.00000195,-0.00002862,0.00000589,-0.0000
 3724,0.00000571,0.00000475,0.00000653,0.00000189,0.00000874,0.00000320
 ,-0.00000676,-0.00001361,0.00000409,-0.00000098,-0.00000089,0.00000314
 ,-0.00000431,0.00000319,-0.00000080,-0.00000410,0.00000262,-0.00000447
 ,0.00000315,-0.00000323,0.00002611,-0.00001188,-0.00000347,0.00000220,
 -0.00000963,-0.00000189,0.00000014,-0.00000392,-0.00000191,-0.00000619
 ,0.00000533,0.00000036,-0.00000470,0.00000312,-0.00000306,0.00000140,-
 0.00000289,0.00007984,-0.00015680,0.00000064,-0.00000221,0.00017058,0.
 00007179,0.00000994,-0.00001298,-0.00001227,-0.00003882,-0.00006724,-0
 .00001722,0.00000517,0.00000071,-0.00000722,-0.00000414,0.00003715,0.0
 0001815,-0.00001776,0.00002291,0.00002636,-0.00003104,0.00007002,-0.00
 005735,0.00000716,0.00002725,0.00000955,0.00000774,-0.00002505,0.00000
 312,0.00000044,-0.00000357,0.00000058,-0.00000264,0.00000095,0.0000010
 8,0.00000315,-0.00000622,-0.00000237,0.00000044,-0.00000284,0.00000316
 ,-0.00000246,-0.00000760,-0.00000127,0.00000072,-0.00000617,-0.0000096
 1,0.00015048,-0.00007563,-0.00000671,-0.00012436,0.00000008,0.00003739
 ,0.00000937,0.00000483,-0.00000064,0.00004759,-0.00002840,-0.00000897,
 -0.00000296,0.00000198,-0.00000033,-0.00001070,-0.00000934,0.00000168,
 0.00000683,0.00001011,-0.00000283,-0.00000292,0.00000467,-0.00000033,-
 0.00000112,-0.00000387,-0.00000146,0.00000158,-0.00000344,0.00000065,-
 0.00000737,0.00000098,-0.00000051,-0.00000231,0.00000064,-0.00000104,0
 .00000310,0.00000021,-0.00000079,0.00000245,-0.00000068,0.00000126,0.0
 0000418,-0.00000106,-0.00000050,0.00000443,0.00000084,-0.00000361,0.00
 098496,-0.00037558,0.00054848,-0.00277872,0.00013189,0.00045262,0.0006
 3054,0.00028823,-0.00056632,0.00218013,0.00855965,0.00133956,0.0007185
 0,-0.00663440,-0.00012526,0.08051065,-0.24961641,0.03362770,-0.0000417
 0,0.00082974,-0.00009166,-0.00002122,0.00008733,0.00012001,0.00012522,
 -0.00046520,0.00087539,-0.00017775,-0.00035879,-0.00005533,0.00036864,
 -0.00021920,0.00002917,0.00001384,-0.00001541,0.00009189,-0.00007721,0
 .00091295,-0.00011783,0.00151947,0.00072115,-0.00126403,0.00722740,-0.
 01769992,0.00263530,-0.09094365,0.26364511,0.00081248,-0.00047611,-0.0
 0004721,-0.00006201,-0.00005891,-0.00005091,0.00000092,-0.00001447,0.0
 0009603,0.00002080,0.00008713,-0.00005792,-0.00000287,-0.00013351,0.00
 000081,-0.00000546,0.00002781,0.00004291,-0.00001005,0.00006170,-0.000
 00424,-0.00001209,-0.00001175,-0.00001790,-0.00001598,-0.00000785,0.00
 000082,0.00001895,-0.00000471,0.00000018,0.00000168,-0.00000616,0.0000
 0548,-0.00000562,0.00000361,0.00000467,-0.00000427,0.00000633,-0.00000
 312,-0.00000884,-0.00008828,0.00002093,0.00000181,-0.00000416,0.000012
 05,0.00000520,0.00000449,0.00000201,0.00000554,0.00001443,-0.00000744,
 0.00000021,0.00000825,-0.00000082,0.00000480,0.00000409,0.00000502,0.0
 0001790,0.00022782,0.00015500,-0.00009664,-0.00018808,-0.00010809,-0.0
 0000075,0.00002613,0.00000822,0.00005303,0.00007860,0.00001819,-0.0000
 0520,-0.00000240,0.00000275,0.00001632,-0.00000286,-0.00000241,-0.0000
 6176,-0.00001140,0.00001834,-0.00002002,-0.00001813,-0.00007514,0.0000
 3260,0.00004081,0.00002932,0.00002235,-0.00002814,0.00001022,-0.000002
 33,0.00000085,-0.00000079,0.00000359,-0.00000851,-0.00000378,0.0000015
 1,0.00000483,0.00000178,0.00000087,0.00000065,-0.00000088,0.00000009,0
 .00000482,0.00000217,-0.00000091,0.00000652,0.00000736,-0.00019210,0.0
 0010251,0.00001152,0.00015694,0.00000585,-0.00004909,-0.00000926,-0.00
 000778,0.00000077,-0.00006080,0.00003528,0.00001259,0.00000369,-0.0000
 0224,0.00000181,0.00001262,0.00001192,-0.00000209,-0.00000879,-0.00001
 313,0.00000323,0.00000330,-0.00000604,-0.00000037,0.00000097,0.0000050
 9,0.00000210,-0.00000149,0.00000423,-0.00000062,0.00000190,-0.00000058
 ,-0.00000288,0.00000299,-0.00000165,0.00000156,-0.00000371,-0.00000023
 ,0.00000060,-0.00000218,0.00000057,-0.00000122,-0.00000499,0.00000106,
 0.00000077,-0.00000573,-0.00000095,0.00000470,-0.00386659,-0.00144128,
 -0.00129034,0.00627402,0.00290559,-0.00264039,-0.00025123,-0.00065418,
 0.00014687,-0.02182652,0.02216880,-0.01132136,0.00696700,-0.02162306,0
 .00201314,-0.01006556,0.03226581,-0.04679251,-0.00137191,0.00154542,0.
 00239334,0.00000088,-0.00028722,0.00008493,0.00079103,-0.00072014,0.00
 008962,0.00014572,-0.00011373,-0.00008799,-0.00011427,0.00023021,0.000
 11934,0.00045389,0.00036630,0.00027048,-0.00041060,-0.00013458,0.00112
 336,0.00379314,-0.00167536,-0.00239861,-0.00096784,0.00490820,0.000435
 44,0.01984964,-0.03741813,0.05780768\\0.00000127,-0.00000086,-0.000000
 05,0.00000244,-0.00000161,-0.00000002,0.00000187,-0.00000170,0.0000000
 8,0.00000040,0.00000046,-0.00000080,-0.00000111,0.00000094,0.00000038,
 -0.00000050,0.00000122,-0.00000040,-0.00000134,0.00000037,0.00000039,-
 0.00000114,0.00000282,-0.00000028,-0.00000188,0.00000168,-0.00000013,-
 0.00000169,0.00000006,0.00000082,-0.00000204,-0.00000076,-0.00000013,-
 0.00000244,-0.00000046,0.00000078,-0.00000244,-0.00000010,0.00000069,0
 .00000033,0.00000222,-0.00000040,0.00000020,0.00000205,-0.00000065,-0.
 00000126,0.00000296,-0.00000056,-0.00000147,0.00000275,-0.00000038,-0.
 00000262,0.00000186,0.00000012,-0.00000187,0.00000157,0.,0.00000028,0.
 00000092,-0.00000039,-0.00000059,-0.00000013,0.,-0.00000069,-0.0000010
 1,-0.00000007,-0.00000064,0.00000045,-0.00000010,-0.00000172,-0.000000
 06,0.00000087,-0.00000191,0.00000133,0.00000049,-0.00000020,0.00000193
 ,-0.00000056,-0.00000016,0.00000247,-0.00000036,-0.00000054,0.00000214
 ,-0.00000048,-0.00000135,0.00000254,-0.00000037,-0.00000010,-0.0000009
 7,0.00000035,-0.00000109,-0.00000099,0.00000097,-0.00000176,-0.0000009
 2,0.00000057,-0.00000207,-0.00000033,0.00000059,-0.00000209,0.00000096
 ,0.00000020,-0.00000124,0.00000046,0.00000002,0.00000125,-0.00000214,0
 .00000045,-0.00000091,-0.00000228,0.00000097,0.00000083,-0.00000306,0.
 00000096,-0.00000085,-0.00000316,0.00000076,0.00000054,-0.00000434,0.0
 0000103,-0.00000022,-0.00000447,0.00000125,-0.00000151,-0.00000296,0.0
 0000122,-0.00000236,-0.00000206,0.00000121,-0.00000184,-0.00000335,0.0
 0000098,-0.00000190,-0.00000356,0.00000192,0.00000123,-0.00000319,0.00
 000047,0.00000128,-0.00000289,0.00000058,0.00000100,-0.00000486,0.0000
 0108,0.00000047,-0.00000434,0.00000125,-0.00000085,-0.00000474,0.00000
 162,-0.00000040,-0.00000456,0.00000136,0.00000152,0.00000150,-0.000000
 73,0.00000316,0.00000011,-0.00000187,0.00000194,0.00000086,-0.00000031
 ,0.00000202,0.00000220,-0.00000100,0.00000241,0.00000239,-0.00000071,0
 .00000233,0.00000252,-0.00000154,0.00000188,0.00000297,-0.00000105,0.0
 0000189,0.00000262,-0.00000129,0.00000257,0.00000317,-0.00000159,0.000
 00134,0.00000319,-0.00000121,0.00000309,0.00000078,-0.00000106,0.00000
 208,0.00000024,-0.00000078,0.00000278,0.00000165,-0.00000113,0.0000016
 0,0.00000138,-0.00000116,0.00000172,0.00000323,-0.00000124,0.00000309,
 0.00000287,-0.00000164\\\@
 The archive entry for this job was punched.


 A BIRD IN THE HAND IS SAFER THAN ONE OVERHEAD.

                       -- NEWTON'S SEVENTH LAW
 Job cpu time:       0 days  6 hours  0 minutes 27.5 seconds.
 Elapsed time:       0 days  1 hours 30 minutes  7.7 seconds.
 File lengths (MBytes):  RWF=   2794 Int=      0 D2E=      0 Chk=     64 Scr=      1
 Normal termination of Gaussian 16 at Sun Jul 11 16:29:51 2021.
