 Entering Gaussian System, Link 0=g16
 Input=01-PbBr2_acn_22692949.com
 Output=01-PbBr2_acn_22692949.log
 Initial command:
 /cm/shared/uniol/software/gaussian/g16.c01/g16/l1.exe "/scratch/22692949_edba4025/Gau-1849.inp" -scrdir="/scratch/22692949_edba4025/"
 Entering Link 1 = /cm/shared/uniol/software/gaussian/g16.c01/g16/l1.exe PID=      1850.
  
 Copyright (c) 1988-2019, Gaussian, Inc.  All Rights Reserved.
  
 This is part of the Gaussian(R) 16 program.  It is based on
 the Gaussian(R) 09 system (copyright 2009, Gaussian, Inc.),
 the Gaussian(R) 03 system (copyright 2003, Gaussian, Inc.),
 the Gaussian(R) 98 system (copyright 1998, Gaussian, Inc.),
 the Gaussian(R) 94 system (copyright 1995, Gaussian, Inc.),
 the Gaussian 92(TM) system (copyright 1992, Gaussian, Inc.),
 the Gaussian 90(TM) system (copyright 1990, Gaussian, Inc.),
 the Gaussian 88(TM) system (copyright 1988, Gaussian, Inc.),
 the Gaussian 86(TM) system (copyright 1986, Carnegie Mellon
 University), and the Gaussian 82(TM) system (copyright 1983,
 Carnegie Mellon University). Gaussian is a federally registered
 trademark of Gaussian, Inc.
  
 This software contains proprietary and confidential information,
 including trade secrets, belonging to Gaussian, Inc.
  
 This software is provided under written license and may be
 used, copied, transmitted, or stored only in accord with that
 written license.
  
 The following legend is applicable only to US Government
 contracts under FAR:
  
                    RESTRICTED RIGHTS LEGEND
  
 Use, reproduction and disclosure by the US Government is
 subject to restrictions as set forth in subparagraphs (a)
 and (c) of the Commercial Computer Software - Restricted
 Rights clause in FAR 52.227-19.
  
 Gaussian, Inc.
 340 Quinnipiac St., Bldg. 40, Wallingford CT 06492
  
  
 ---------------------------------------------------------------
 Warning -- This program may not be used in any manner that
 competes with the business of Gaussian, Inc. or will provide
 assistance to any competitor of Gaussian, Inc.  The licensee
 of this program is prohibited from giving any competitor of
 Gaussian, Inc. access to this program.  By using this program,
 the user acknowledges that Gaussian, Inc. is engaged in the
 business of creating and licensing software in the field of
 computational chemistry and represents and warrants to the
 licensee that it is not a competitor of Gaussian, Inc. and that
 it will not use this program in any manner prohibited above.
 ---------------------------------------------------------------
  

 Cite this work as:
 Gaussian 16, Revision C.01,
 M. J. Frisch, G. W. Trucks, H. B. Schlegel, G. E. Scuseria, 
 M. A. Robb, J. R. Cheeseman, G. Scalmani, V. Barone, 
 G. A. Petersson, H. Nakatsuji, X. Li, M. Caricato, A. V. Marenich, 
 J. Bloino, B. G. Janesko, R. Gomperts, B. Mennucci, H. P. Hratchian, 
 J. V. Ortiz, A. F. Izmaylov, J. L. Sonnenberg, D. Williams-Young, 
 F. Ding, F. Lipparini, F. Egidi, J. Goings, B. Peng, A. Petrone, 
 T. Henderson, D. Ranasinghe, V. G. Zakrzewski, J. Gao, N. Rega, 
 G. Zheng, W. Liang, M. Hada, M. Ehara, K. Toyota, R. Fukuda, 
 J. Hasegawa, M. Ishida, T. Nakajima, Y. Honda, O. Kitao, H. Nakai, 
 T. Vreven, K. Throssell, J. A. Montgomery, Jr., J. E. Peralta, 
 F. Ogliaro, M. J. Bearpark, J. J. Heyd, E. N. Brothers, K. N. Kudin, 
 V. N. Staroverov, T. A. Keith, R. Kobayashi, J. Normand, 
 K. Raghavachari, A. P. Rendell, J. C. Burant, S. S. Iyengar, 
 J. Tomasi, M. Cossi, J. M. Millam, M. Klene, C. Adamo, R. Cammi, 
 J. W. Ochterski, R. L. Martin, K. Morokuma, O. Farkas, 
 J. B. Foresman, and D. J. Fox, Gaussian, Inc., Wallingford CT, 2019.
 
 ******************************************
 Gaussian 16:  ES64L-G16RevC.01  3-Jul-2019
                 2-Nov-2020 
 ******************************************
 %Chk=01-PbBr2_acn
 %mem=16GB
 %NProcShared=4
 Will use up to    4 processors via shared memory.
 ----------------------------------------------------------------------
 # pbepbe/Gen pseudo=read Opt Freq EmpiricalDispersion=GD3BJ SCRF=(Solv
 ent=CH3CN)
 ----------------------------------------------------------------------
 1/18=20,19=15,26=3,38=1/1,3;
 2/9=110,12=2,17=6,18=5,40=1/2;
 3/5=7,11=2,16=1,17=8,25=1,30=1,70=2201,71=1,72=2,74=1009,124=41/1,2,3;
 4//1;
 5/5=2,38=5,53=2/2;
 6/7=2,8=2,9=2,10=2,28=1/1;
 7//1,2,3,16;
 1/18=20,19=15,26=3/3(2);
 2/9=110/2;
 99//99;
 2/9=110/2;
 3/5=7,6=1,11=2,16=1,17=8,25=1,30=1,70=2205,71=1,72=2,74=1009,82=7,124=41/1,2,3;
 4/5=5,16=3,69=1/1;
 5/5=2,38=5,53=2/2;
 7//1,2,3,16;
 1/18=20,19=15,26=3/3(-5);
 2/9=110/2;
 6/7=2,8=2,9=2,10=2,19=2,28=1/1;
 99/9=1/99;
 -------------------------
 01-PbBr2_acn_22691943.out
 -------------------------
 Symbolic Z-matrix:
 Charge =  0 Multiplicity = 1
 Pb                   -0.0833   -0.20605  -0.61362 
 Br                    0.75435  -2.19535   1.26287 
 Br                   -1.91958   1.07206   1.20877 
 C                    -0.54829   4.29752  -0.45991 
 H                     0.39655   4.78529  -0.15147 
 H                    -1.20683   5.04746  -0.9387 
 H                    -1.05655   3.87594   0.43211 
 C                    -0.27235   3.20768  -1.37772 
 N                    -0.05543   2.29898  -2.09221 
 C                     4.19689  -1.8034   -0.43624 
 H                     4.96354  -1.0768   -0.10482 
 H                     4.69036  -2.63819  -0.97 
 H                     3.65406  -2.19959   0.44721 
 C                     3.22965  -1.15287  -1.30059 
 N                     2.41991  -0.62811  -1.97323 
 C                    -4.46367  -1.60631  -0.00245 
 H                    -5.29141  -1.39472  -0.70624 
 H                    -4.7      -2.51829   0.57864 
 H                    -4.33746  -0.74845   0.69013 
 C                    -3.21963  -1.78111  -0.72703 
 N                    -2.19836  -1.89909  -1.29775 
 C                     3.27488   2.894     1.83106 
 H                     4.1778    2.3385    2.14966 
 H                     3.574     3.71967   1.15697 
 H                     2.77319   3.31573   2.72342 
 C                     2.36778   2.00045   1.13783 
 N                     1.63173   1.28097   0.57935 
 
 Add virtual bond connecting atoms N27        and Pb1        Dist= 4.85D+00.
 Add virtual bond connecting atoms N21        and Pb1        Dist= 5.28D+00.
 Add virtual bond connecting atoms H13        and Br2        Dist= 5.69D+00.
 Add virtual bond connecting atoms N15        and Pb1        Dist= 5.44D+00.
 Add virtual bond connecting atoms H7         and Br3        Dist= 5.73D+00.
 Add virtual bond connecting atoms N9         and Pb1        Dist= 5.50D+00.

 GradGradGradGradGradGradGradGradGradGradGradGradGradGradGradGradGradGrad
 Berny optimization.
 Initialization pass.
                           ----------------------------
                           !    Initial Parameters    !
                           ! (Angstroms and Degrees)  !
 --------------------------                            --------------------------
 ! Name  Definition              Value          Derivative Info.                !
 --------------------------------------------------------------------------------
 ! R1    R(1,2)                  2.8601         estimate D2E/DX2                !
 ! R2    R(1,3)                  2.8856         estimate D2E/DX2                !
 ! R3    R(1,9)                  2.909          estimate D2E/DX2                !
 ! R4    R(1,15)                 2.8797         estimate D2E/DX2                !
 ! R5    R(1,21)                 2.7943         estimate D2E/DX2                !
 ! R6    R(1,27)                 2.5643         estimate D2E/DX2                !
 ! R7    R(2,13)                 3.0122         estimate D2E/DX2                !
 ! R8    R(3,7)                  3.0348         estimate D2E/DX2                !
 ! R9    R(4,5)                  1.1071         estimate D2E/DX2                !
 ! R10   R(4,6)                  1.1069         estimate D2E/DX2                !
 ! R11   R(4,7)                  1.1098         estimate D2E/DX2                !
 ! R12   R(4,8)                  1.4513         estimate D2E/DX2                !
 ! R13   R(8,9)                  1.1761         estimate D2E/DX2                !
 ! R14   R(10,11)                1.107          estimate D2E/DX2                !
 ! R15   R(10,12)                1.1069         estimate D2E/DX2                !
 ! R16   R(10,13)                1.11           estimate D2E/DX2                !
 ! R17   R(10,14)                1.4512         estimate D2E/DX2                !
 ! R18   R(14,15)                1.1762         estimate D2E/DX2                !
 ! R19   R(16,17)                1.1069         estimate D2E/DX2                !
 ! R20   R(16,18)                1.1069         estimate D2E/DX2                !
 ! R21   R(16,19)                1.1097         estimate D2E/DX2                !
 ! R22   R(16,20)                1.4502         estimate D2E/DX2                !
 ! R23   R(20,21)                1.1759         estimate D2E/DX2                !
 ! R24   R(22,23)                1.107          estimate D2E/DX2                !
 ! R25   R(22,24)                1.1071         estimate D2E/DX2                !
 ! R26   R(22,25)                1.1072         estimate D2E/DX2                !
 ! R27   R(22,26)                1.4498         estimate D2E/DX2                !
 ! R28   R(26,27)                1.171          estimate D2E/DX2                !
 ! A1    A(2,1,3)               94.5939         estimate D2E/DX2                !
 ! A2    A(2,1,9)              158.3764         estimate D2E/DX2                !
 ! A3    A(2,1,15)              87.3199         estimate D2E/DX2                !
 ! A4    A(2,1,21)              87.7589         estimate D2E/DX2                !
 ! A5    A(2,1,27)              84.3893         estimate D2E/DX2                !
 ! A6    A(3,1,9)               86.8862         estimate D2E/DX2                !
 ! A7    A(3,1,15)             156.3849         estimate D2E/DX2                !
 ! A8    A(3,1,21)              86.6355         estimate D2E/DX2                !
 ! A9    A(3,1,27)              82.816          estimate D2E/DX2                !
 ! A10   A(9,1,15)              82.9869         estimate D2E/DX2                !
 ! A11   A(9,1,21)             113.8641         estimate D2E/DX2                !
 ! A12   A(9,1,27)              74.3769         estimate D2E/DX2                !
 ! A13   A(15,1,21)            116.973          estimate D2E/DX2                !
 ! A14   A(15,1,27)             73.935          estimate D2E/DX2                !
 ! A15   A(1,2,13)              96.0418         estimate D2E/DX2                !
 ! A16   A(1,3,7)               93.8207         estimate D2E/DX2                !
 ! A17   A(5,4,6)              109.2521         estimate D2E/DX2                !
 ! A18   A(5,4,7)              109.5274         estimate D2E/DX2                !
 ! A19   A(5,4,8)              110.1671         estimate D2E/DX2                !
 ! A20   A(6,4,7)              109.4232         estimate D2E/DX2                !
 ! A21   A(6,4,8)              110.3852         estimate D2E/DX2                !
 ! A22   A(7,4,8)              108.0658         estimate D2E/DX2                !
 ! A23   A(3,7,4)              133.3838         estimate D2E/DX2                !
 ! A24   A(1,9,8)              110.7802         estimate D2E/DX2                !
 ! A25   A(11,10,12)           109.306          estimate D2E/DX2                !
 ! A26   A(11,10,13)           109.5519         estimate D2E/DX2                !
 ! A27   A(11,10,14)           110.223          estimate D2E/DX2                !
 ! A28   A(12,10,13)           109.4277         estimate D2E/DX2                !
 ! A29   A(12,10,14)           110.3652         estimate D2E/DX2                !
 ! A30   A(13,10,14)           107.9452         estimate D2E/DX2                !
 ! A31   A(2,13,10)            133.2965         estimate D2E/DX2                !
 ! A32   A(1,15,14)            113.1917         estimate D2E/DX2                !
 ! A33   A(17,16,18)           109.3671         estimate D2E/DX2                !
 ! A34   A(17,16,19)           109.517          estimate D2E/DX2                !
 ! A35   A(17,16,20)           110.2941         estimate D2E/DX2                !
 ! A36   A(18,16,19)           109.4846         estimate D2E/DX2                !
 ! A37   A(18,16,20)           110.2509         estimate D2E/DX2                !
 ! A38   A(19,16,20)           107.9043         estimate D2E/DX2                !
 ! A39   A(1,21,20)            118.5413         estimate D2E/DX2                !
 ! A40   A(23,22,24)           109.2161         estimate D2E/DX2                !
 ! A41   A(23,22,25)           109.1946         estimate D2E/DX2                !
 ! A42   A(23,22,26)           109.7969         estimate D2E/DX2                !
 ! A43   A(24,22,25)           109.2141         estimate D2E/DX2                !
 ! A44   A(24,22,26)           109.7294         estimate D2E/DX2                !
 ! A45   A(25,22,26)           109.6724         estimate D2E/DX2                !
 ! A46   L(21,1,27,2,-1)       172.1481         estimate D2E/DX2                !
 ! A47   L(4,8,9,3,-1)         178.1528         estimate D2E/DX2                !
 ! A48   L(10,14,15,2,-1)      178.1837         estimate D2E/DX2                !
 ! A49   L(16,20,21,3,-1)      178.4568         estimate D2E/DX2                !
 ! A50   L(22,26,27,4,-1)      179.8399         estimate D2E/DX2                !
 ! A51   L(1,27,26,4,-1)       177.3342         estimate D2E/DX2                !
 ! A52   L(21,1,27,2,-2)       191.2567         estimate D2E/DX2                !
 ! A53   L(4,8,9,3,-2)         180.5259         estimate D2E/DX2                !
 ! A54   L(10,14,15,2,-2)      179.6197         estimate D2E/DX2                !
 ! A55   L(16,20,21,3,-2)      179.9492         estimate D2E/DX2                !
 ! A56   L(22,26,27,4,-2)      180.1433         estimate D2E/DX2                !
 ! A57   L(1,27,26,4,-2)       178.3947         estimate D2E/DX2                !
 ! D1    D(3,1,2,13)          -141.5031         estimate D2E/DX2                !
 ! D2    D(9,1,2,13)           -48.3605         estimate D2E/DX2                !
 ! D3    D(15,1,2,13)           14.9102         estimate D2E/DX2                !
 ! D4    D(21,1,2,13)          132.0553         estimate D2E/DX2                !
 ! D5    D(27,1,2,13)          -59.2013         estimate D2E/DX2                !
 ! D6    D(2,1,3,7)            136.539          estimate D2E/DX2                !
 ! D7    D(9,1,3,7)            -21.8381         estimate D2E/DX2                !
 ! D8    D(15,1,3,7)            42.7156         estimate D2E/DX2                !
 ! D9    D(21,1,3,7)          -135.9842         estimate D2E/DX2                !
 ! D10   D(27,1,3,7)            52.796          estimate D2E/DX2                !
 ! D11   D(2,1,9,8)            -66.5717         estimate D2E/DX2                !
 ! D12   D(3,1,9,8)             28.0417         estimate D2E/DX2                !
 ! D13   D(15,1,9,8)          -130.5842         estimate D2E/DX2                !
 ! D14   D(21,1,9,8)           112.9739         estimate D2E/DX2                !
 ! D15   D(27,1,9,8)           -55.3643         estimate D2E/DX2                !
 ! D16   D(2,1,15,14)          -18.8949         estimate D2E/DX2                !
 ! D17   D(3,1,15,14)           76.4463         estimate D2E/DX2                !
 ! D18   D(9,1,15,14)          141.7386         estimate D2E/DX2                !
 ! D19   D(21,1,15,14)        -105.0101         estimate D2E/DX2                !
 ! D20   D(27,1,15,14)          66.0351         estimate D2E/DX2                !
 ! D21   D(2,1,21,20)           91.5927         estimate D2E/DX2                !
 ! D22   D(3,1,21,20)           -3.1449         estimate D2E/DX2                !
 ! D23   D(9,1,21,20)          -88.2398         estimate D2E/DX2                !
 ! D24   D(15,1,21,20)         177.4394         estimate D2E/DX2                !
 ! D25   D(2,1,22,23)           36.4603         estimate D2E/DX2                !
 ! D26   D(2,1,22,24)          157.3515         estimate D2E/DX2                !
 ! D27   D(2,1,22,25)          -83.6278         estimate D2E/DX2                !
 ! D28   D(3,1,22,23)          131.8545         estimate D2E/DX2                !
 ! D29   D(3,1,22,24)         -107.2543         estimate D2E/DX2                !
 ! D30   D(3,1,22,25)           11.7664         estimate D2E/DX2                !
 ! D31   D(9,1,22,23)         -138.8674         estimate D2E/DX2                !
 ! D32   D(9,1,22,24)          -17.9762         estimate D2E/DX2                !
 ! D33   D(9,1,22,25)          101.0445         estimate D2E/DX2                !
 ! D34   D(15,1,22,23)         -52.0111         estimate D2E/DX2                !
 ! D35   D(15,1,22,24)          68.8802         estimate D2E/DX2                !
 ! D36   D(15,1,22,25)        -172.0992         estimate D2E/DX2                !
 ! D37   D(1,2,13,10)          -14.9139         estimate D2E/DX2                !
 ! D38   D(1,3,7,4)             21.0975         estimate D2E/DX2                !
 ! D39   D(5,4,7,3)           -120.6164         estimate D2E/DX2                !
 ! D40   D(6,4,7,3)            119.6469         estimate D2E/DX2                !
 ! D41   D(8,4,7,3)             -0.5864         estimate D2E/DX2                !
 ! D42   D(5,4,9,1)             98.3705         estimate D2E/DX2                !
 ! D43   D(6,4,9,1)           -140.3475         estimate D2E/DX2                !
 ! D44   D(7,4,9,1)            -20.8757         estimate D2E/DX2                !
 ! D45   D(11,10,13,2)         121.1874         estimate D2E/DX2                !
 ! D46   D(12,10,13,2)        -118.9922         estimate D2E/DX2                !
 ! D47   D(14,10,13,2)           1.1476         estimate D2E/DX2                !
 ! D48   D(11,10,15,1)        -105.5382         estimate D2E/DX2                !
 ! D49   D(12,10,15,1)         133.0963         estimate D2E/DX2                !
 ! D50   D(13,10,15,1)          13.7351         estimate D2E/DX2                !
 ! D51   D(17,16,21,1)         122.2353         estimate D2E/DX2                !
 ! D52   D(18,16,21,1)        -116.4328         estimate D2E/DX2                !
 ! D53   D(19,16,21,1)           2.8556         estimate D2E/DX2                !
 --------------------------------------------------------------------------------
 Trust Radius=3.00D-01 FncErr=1.00D-07 GrdErr=1.00D-06 EigMax=2.50D+02 EigMin=1.00D-04
 Number of steps in this run=    148 maximum allowed number of steps=    162.
 GradGradGradGradGradGradGradGradGradGradGradGradGradGradGradGradGradGrad

                          Input orientation:                          
 ---------------------------------------------------------------------
 Center     Atomic      Atomic             Coordinates (Angstroms)
 Number     Number       Type             X           Y           Z
 ---------------------------------------------------------------------
      1         82           0       -0.083300   -0.206050   -0.613620
      2         35           0        0.754350   -2.195350    1.262870
      3         35           0       -1.919580    1.072060    1.208770
      4          6           0       -0.548290    4.297520   -0.459910
      5          1           0        0.396550    4.785290   -0.151470
      6          1           0       -1.206830    5.047460   -0.938700
      7          1           0       -1.056550    3.875940    0.432110
      8          6           0       -0.272350    3.207680   -1.377720
      9          7           0       -0.055430    2.298980   -2.092210
     10          6           0        4.196890   -1.803400   -0.436240
     11          1           0        4.963540   -1.076800   -0.104820
     12          1           0        4.690360   -2.638190   -0.970000
     13          1           0        3.654060   -2.199590    0.447210
     14          6           0        3.229650   -1.152870   -1.300590
     15          7           0        2.419910   -0.628110   -1.973230
     16          6           0       -4.463670   -1.606310   -0.002450
     17          1           0       -5.291410   -1.394720   -0.706240
     18          1           0       -4.700000   -2.518290    0.578640
     19          1           0       -4.337460   -0.748450    0.690130
     20          6           0       -3.219630   -1.781110   -0.727030
     21          7           0       -2.198360   -1.899090   -1.297750
     22          6           0        3.274880    2.894000    1.831060
     23          1           0        4.177800    2.338500    2.149660
     24          1           0        3.574000    3.719670    1.156970
     25          1           0        2.773190    3.315730    2.723420
     26          6           0        2.367780    2.000450    1.137830
     27          7           0        1.631730    1.280970    0.579350
 ---------------------------------------------------------------------
                    Distance matrix (angstroms):
                    1          2          3          4          5
     1  Pb   0.000000
     2  Br   2.860103   0.000000
     3  Br   2.885584   4.222416   0.000000
     4  C    4.530120   6.842675   3.881819   0.000000
     5  H    5.035605   7.131459   4.582880   1.107148   0.000000
     6  H    5.382134   7.819938   4.574215   1.106944   1.805351
     7  H    4.324744   6.389842   3.034759   1.109846   1.810796
     8  C    3.503304   6.100784   3.736866   1.451299   2.107124
     9  N    2.908983   5.666684   3.984577   2.627066   3.186298
    10  C    4.571982   3.858974   6.955971   7.729070   7.611473
    11  H    5.146618   4.564977   7.329424   7.706470   7.431263
    12  H    5.369371   4.546866   7.886970   8.706763   8.614804
    13  H    4.366626   3.012248   6.507621   7.790703   7.730352
    14  C    3.513408   3.712843   6.145061   6.684783   6.678973
    15  N    2.879711   3.962660   5.643304   5.946611   6.059513
    16  C    4.639170   5.401457   3.887559   7.098921   8.030971
    17  H    5.342839   6.408558   4.595814   7.413465   8.417433
    18  H    5.299232   5.506577   4.584584   8.048015   8.935892
    19  H    4.482392   5.324291   3.070731   6.414220   7.330854
    20  C    3.511444   4.463610   3.684838   6.645085   7.518353
    21  N    2.794261   3.919572   3.897190   6.467046   7.261436
    22  C    5.183063   5.707661   5.539777   4.672798   3.973938
    23  H    5.680442   5.749974   6.298189   5.743130   5.057651
    24  H    5.649965   6.553556   6.098520   4.465589   3.597742
    25  H    5.630125   6.048217   5.417593   4.704225   4.009117
    26  C    3.734168   4.497058   4.387299   4.041382   3.647379
    27  N    2.564319   3.649904   3.612702   3.864210   3.786823
                    6          7          8          9         10
     6  H    0.000000
     7  H    1.809465   0.000000
     8  C    2.109688   2.082553   0.000000
     9  N    3.195379   3.140260   1.176132   0.000000
    10  C    8.739962   7.785086   6.780222   6.136284   0.000000
    11  H    8.733578   7.814052   6.884155   6.366763   1.107041
    12  H    9.687468   8.799249   7.679122   6.939562   1.106927
    13  H    8.835651   7.687792   6.927166   6.359725   1.110007
    14  C    7.632654   6.831009   5.593241   4.830495   1.451152
    15  N    6.814366   6.177208   4.724001   3.835273   2.627033
    16  C    7.467009   6.469341   6.529397   6.249077   8.673657
    17  H    7.631482   6.856365   6.842802   6.555900   9.500934
    18  H    8.470250   7.360868   7.497877   7.204968   8.983079
    19  H    6.785757   5.675908   6.037556   5.946766   8.672760
    20  C    7.122186   6.166420   5.830770   5.340694   7.422252
    21  N    7.026137   6.135725   5.458481   4.779865   6.453726
    22  C    5.691633   4.656453   4.793486   5.180450   5.296822
    23  H    6.772789   5.719451   5.744712   5.992934   4.882886
    24  H    5.386204   4.689545   4.634781   5.074278   5.781921
    25  H    5.678959   4.497871   5.109436   5.676721   6.181898
    26  C    5.135570   3.967561   3.841313   4.048978   4.504732
    27  N    4.954629   3.739305   3.341834   3.319651   4.138213
                   11         12         13         14         15
    11  H    0.000000
    12  H    1.805852   0.000000
    13  H    1.811114   1.809633   0.000000
    14  C    2.107612   2.109298   2.080998   0.000000
    15  N    3.187841   3.194031   3.138663   1.176221   0.000000
    16  C    9.442624   9.262678   8.151792   7.815238   7.226654
    17  H   10.277489  10.062381   9.055368   8.545186   7.852223
    18  H    9.794336   9.517958   8.361170   8.262882   7.796021
    19  H    9.340683   9.371696   8.125836   7.835029   7.264297
    20  C    8.236958   7.959998   6.985813   6.505142   5.889553
    21  N    7.306987   6.936004   6.114410   5.479064   4.837363
    22  C    4.729319   6.360397   5.291831   5.117268   5.254413
    23  H    4.167054   5.895968   4.875131   4.999288   5.374865
    24  H    5.150637   6.796517   5.962198   5.468073   5.480262
    25  H    5.664883   7.264025   6.031237   6.030705   6.143061
    26  C    4.213267   5.599492   4.446550   4.078252   4.073173
    27  N    4.138614   5.207256   4.027602   3.465703   3.283516
                   16         17         18         19         20
    16  C    0.000000
    17  H    1.106907   0.000000
    18  H    1.106899   1.806403   0.000000
    19  H    1.109739   1.810396   1.810027   0.000000
    20  C    1.450244   2.107606   2.107060   2.079489   0.000000
    21  N    2.625862   3.189237   3.187860   3.138692   1.175854
    22  C    9.137817   9.910214   9.719061   8.515685   8.401139
    23  H    9.740026  10.571615  10.240696   9.174374   8.942511
    24  H    9.711563  10.403078  10.378135   9.097980   8.942116
    25  H    9.166733   9.949306   9.720311   8.438790   8.590534
    26  C    7.808820   8.578518   8.407450   7.260656   6.999789
    27  N    6.769696   7.532724   7.384117   6.305715   5.883762
                   21         22         23         24         25
    21  N    0.000000
    22  C    7.919566   0.000000
    23  H    8.396262   1.106956   0.000000
    24  H    8.421179   1.107069   1.804893   0.000000
    25  H    8.251089   1.107184   1.804746   1.805057   0.000000
    26  C    6.479822   1.449769   2.101012   2.100250   2.099622
    27  N    5.320327   2.620799   3.172809   3.170696   3.168630
                   26         27
    26  C    0.000000
    27  N    1.171034   0.000000
 Stoichiometry    C8H12Br2N4Pb
 Framework group  C1[X(C8H12Br2N4Pb)]
 Deg. of freedom    75
 Full point group                 C1      NOp   1
 Largest Abelian subgroup         C1      NOp   1
 Largest concise Abelian subgroup C1      NOp   1
                         Standard orientation:                         
 ---------------------------------------------------------------------
 Center     Atomic      Atomic             Coordinates (Angstroms)
 Number     Number       Type             X           Y           Z
 ---------------------------------------------------------------------
      1         82           0       -0.083299   -0.206052   -0.613621
      2         35           0        0.754364   -2.195346    1.262869
      3         35           0       -1.919587    1.072046    1.208769
      4          6           0       -0.548318    4.297515   -0.459911
      5          1           0        0.396519    4.785291   -0.151471
      6          1           0       -1.206863    5.047451   -0.938701
      7          1           0       -1.056575    3.875932    0.432109
      8          6           0       -0.272371    3.207677   -1.377721
      9          7           0       -0.055445    2.298978   -2.092211
     10          6           0        4.196901   -1.803374   -0.436241
     11          1           0        4.963546   -1.076769   -0.104821
     12          1           0        4.690377   -2.638161   -0.970001
     13          1           0        3.654074   -2.199568    0.447209
     14          6           0        3.229657   -1.152850   -1.300591
     15          7           0        2.419914   -0.628096   -1.973231
     16          6           0       -4.463660   -1.606340   -0.002451
     17          1           0       -5.291401   -1.394755   -0.706241
     18          1           0       -4.699984   -2.518322    0.578639
     19          1           0       -4.337456   -0.748479    0.690129
     20          6           0       -3.219619   -1.781132   -0.727031
     21          7           0       -2.198348   -1.899105   -1.297751
     22          6           0        3.274861    2.894020    1.831059
     23          1           0        4.177784    2.338526    2.149659
     24          1           0        3.573976    3.719692    1.156969
     25          1           0        2.773168    3.315747    2.723419
     26          6           0        2.367767    2.000464    1.137829
     27          7           0        1.631721    1.280979    0.579349
 ---------------------------------------------------------------------
 Rotational constants (GHZ):           0.2601057           0.2301200           0.1706694
 General basis read from cards:  (5D, 7F)
 ======================================================================================================
                                       Pseudopotential Parameters
 ======================================================================================================
  Center     Atomic      Valence      Angular      Power
  Number     Number     Electrons     Momentum     of R      Exponent        Coefficient   SO-Coeffient
 ======================================================================================================
    1         82            4
                                      G and up 
                                                     0      376.5803786       -0.17896050    0.00000000
                                                     1       86.4840014      -54.39723370    0.00000000
                                                     2       26.6784276     -199.70617590    0.00000000
                                                     2        9.4261986      -79.12239410    0.00000000
                                                     2        2.7101719      -24.98690200    0.00000000
                                                     2        0.8792031       -4.43979390    0.00000000
                                      S - G
                                                     0      132.4248796        2.81153860    0.00000000
                                                     1       47.2376044       65.03672050    0.00000000
                                                     2       17.6312727      212.78685450    0.00000000
                                                     2        5.4744712       72.10531750    0.00000000
                                                     2        1.2634856       33.01409400    0.00000000
                                                     2        0.7651447       -5.77084610    0.00000000
                                      P - G
                                                     0       67.8966454        4.87549110    0.00000000
                                                     1       24.9898225       63.91481020    0.00000000
                                                     2       10.7052939      148.10643580    0.00000000
                                                     2        3.2792568       47.31063010    0.00000000
                                                     2        0.8452522       21.03067020    0.00000000
                                                     2        0.6416245       -7.09307720    0.00000000
                                      D - G
                                                     0       68.8336005        3.21613880    0.00000000
                                                     1       24.2815874       55.73860860    0.00000000
                                                     2        9.4532762      121.41683510    0.00000000
                                                     2        2.4788185       19.34560640    0.00000000
                                                     2        2.4789161       15.36751680    0.00000000
                                                     2        0.5551738        6.12987240    0.00000000
                                      F - G
                                                     0      128.1021322        4.13536820    0.00000000
                                                     1       54.8029154       67.51284460    0.00000000
                                                     2       24.5529308      258.73731070    0.00000000
                                                     2        8.1144792      113.24782640    0.00000000
                                                     2        1.6931290       34.16802010    0.00000000
                                                     2        0.7670500       -6.55319560    0.00000000
    2         35            7
                                      F and up 
                                                     1      213.6143969      -28.00000000    0.00000000
                                                     2       41.0585380     -134.92688520    0.00000000
                                                     2        8.7086530      -41.92719130    0.00000000
                                                     2        2.6074661       -5.93364200    0.00000000
                                      S - F
                                                     0       54.1980682        3.00000000    0.00000000
                                                     1       32.9053558       27.34306420    0.00000000
                                                     2       13.6744890      118.80288470    0.00000000
                                                     2        3.0341152       43.43548760    0.00000000
                                      P - F
                                                     0       54.2563340        5.00000000    0.00000000
                                                     1       26.0095593       25.05042520    0.00000000
                                                     2       28.2012995       92.61574630    0.00000000
                                                     2        9.4341061       95.82490160    0.00000000
                                                     2        2.5321764       26.26849830    0.00000000
                                      D - F
                                                     0       87.6328721        3.00000000    0.00000000
                                                     1       61.7373377       22.55335570    0.00000000
                                                     2       32.4385104      178.12419880    0.00000000
                                                     2        8.7537199       76.99241620    0.00000000
                                                     2        1.6633189        9.48182700    0.00000000
    3         35            7
                                      F and up 
                                                     1      213.6143969      -28.00000000    0.00000000
                                                     2       41.0585380     -134.92688520    0.00000000
                                                     2        8.7086530      -41.92719130    0.00000000
                                                     2        2.6074661       -5.93364200    0.00000000
                                      S - F
                                                     0       54.1980682        3.00000000    0.00000000
                                                     1       32.9053558       27.34306420    0.00000000
                                                     2       13.6744890      118.80288470    0.00000000
                                                     2        3.0341152       43.43548760    0.00000000
                                      P - F
                                                     0       54.2563340        5.00000000    0.00000000
                                                     1       26.0095593       25.05042520    0.00000000
                                                     2       28.2012995       92.61574630    0.00000000
                                                     2        9.4341061       95.82490160    0.00000000
                                                     2        2.5321764       26.26849830    0.00000000
                                      D - F
                                                     0       87.6328721        3.00000000    0.00000000
                                                     1       61.7373377       22.55335570    0.00000000
                                                     2       32.4385104      178.12419880    0.00000000
                                                     2        8.7537199       76.99241620    0.00000000
                                                     2        1.6633189        9.48182700    0.00000000
    4          6
                                   No pseudopotential on this center.
    5          1
                                   No pseudopotential on this center.
    6          1
                                   No pseudopotential on this center.
    7          1
                                   No pseudopotential on this center.
    8          6
                                   No pseudopotential on this center.
    9          7
                                   No pseudopotential on this center.
   10          6
                                   No pseudopotential on this center.
   11          1
                                   No pseudopotential on this center.
   12          1
                                   No pseudopotential on this center.
   13          1
                                   No pseudopotential on this center.
   14          6
                                   No pseudopotential on this center.
   15          7
                                   No pseudopotential on this center.
   16          6
                                   No pseudopotential on this center.
   17          1
                                   No pseudopotential on this center.
   18          1
                                   No pseudopotential on this center.
   19          1
                                   No pseudopotential on this center.
   20          6
                                   No pseudopotential on this center.
   21          7
                                   No pseudopotential on this center.
   22          6
                                   No pseudopotential on this center.
   23          1
                                   No pseudopotential on this center.
   24          1
                                   No pseudopotential on this center.
   25          1
                                   No pseudopotential on this center.
   26          6
                                   No pseudopotential on this center.
   27          7
                                   No pseudopotential on this center.
 ======================================================================================================
 There are   264 symmetry adapted cartesian basis functions of A   symmetry.
 There are   252 symmetry adapted basis functions of A   symmetry.
   252 basis functions,   516 primitive gaussians,   264 cartesian basis functions
    53 alpha electrons       53 beta electrons
       nuclear repulsion energy       721.7737177765 Hartrees.
 NAtoms=   27 NActive=   27 NUniq=   27 SFac= 1.00D+00 NAtFMM=   60 NAOKFM=F Big=F
 Integral buffers will be    131072 words long.
 Raffenetti 2 integral format.
 Two-electron integral symmetry is turned on.
 Nuclear repulsion after empirical dispersion term =      721.7419895092 Hartrees.
 ------------------------------------------------------------------------------
 Polarizable Continuum Model (PCM)
 =================================
 Model                : PCM.
 Atomic radii         : UFF (Universal Force Field).
 Polarization charges : Total charges.
 Charge compensation  : None.
 Solution method      : On-the-fly selection.
 Cavity type          : Scaled VdW (van der Waals Surface) (Alpha=1.100).
 Cavity algorithm     : GePol (No added spheres)
                        Default sphere list used, NSphG=   27.
                        Lebedev-Laikov grids with approx.  5.0 points / Ang**2.
                        Smoothing algorithm: York/Karplus (Gamma=1.0000).
                        Polarization charges: spherical gaussians, with
                                              point-specific exponents (IZeta= 3).
                        Self-potential: point-specific (ISelfS= 7).
                        Self-field    : sphere-specific E.n sum rule (ISelfD= 2).
 1st derivatives      : Analytical E(r).r(x)/FMM algorithm (CHGder, D1EAlg=3).
                        Cavity 1st derivative terms included.
 Solvent              : Acetonitrile, Eps=  35.688000 Eps(inf)=   1.806874
 ------------------------------------------------------------------------------
 One-electron integrals computed using PRISM.
   1 Symmetry operations used in ECPInt.
 ECPInt:  NShTT=    7260 NPrTT=   51303 LenC2=    6446 LenP2D=   25544.
 LDataN:  DoStor=T MaxTD1= 6 Len=  172
 NBasis=   252 RedAO= T EigKep=  2.48D-03  NBF=   252
 NBsUse=   252 1.00D-06 EigRej= -1.00D+00 NBFU=   252
 Defaulting to unpruned grid for atomic number  82.
 ExpMin= 5.98D-02 ExpMax= 9.05D+03 ExpMxC= 3.09D+02 IAcc=3 IRadAn=         5 AccDes= 0.00D+00
 Harris functional with IExCor= 1009 and IRadAn=       5 diagonalized for initial guess.
 HarFok:  IExCor= 1009 AccDes= 0.00D+00 IRadAn=         5 IDoV= 1 UseB2=F ITyADJ=14
 ICtDFT=  3500011 ScaDFX=  1.000000  1.000000  1.000000  1.000000
 Defaulting to unpruned grid for atomic number  82.
 FoFCou: FMM=F IPFlag=           0 FMFlag=      100000 FMFlg1=           0
         NFxFlg=           0 DoJE=T BraDBF=F KetDBF=T FulRan=T
         wScrn=  0.000000 ICntrl=       500 IOpCl=  0 I1Cent=   200000004 NGrid=           0
         NMat0=    1 NMatS0=      1 NMatT0=    0 NMatD0=    1 NMtDS0=    0 NMtDT0=    0
 Petite list used in FoFCou.
 Keep J ints in memory in canonical form, NReq=517426577.
 Requested convergence on RMS density matrix=1.00D-08 within 128 cycles.
 Requested convergence on MAX density matrix=1.00D-06.
 Requested convergence on             energy=1.00D-06.
 No special actions if energy rises.
 Defaulting to unpruned grid for atomic number  82.
 Defaulting to unpruned grid for atomic number  82.
 Defaulting to unpruned grid for atomic number  82.
 Defaulting to unpruned grid for atomic number  82.
 Inv3:  Mode=1 IEnd=    25966092.
 Iteration    1 A*A^-1 deviation from unit magnitude is 3.44D-15 for   2199.
 Iteration    1 A*A^-1 deviation from orthogonality  is 1.92D-15 for   2227     74.
 Iteration    1 A^-1*A deviation from unit magnitude is 3.66D-15 for   1623.
 Iteration    1 A^-1*A deviation from orthogonality  is 1.50D-14 for   1982   1956.
 EnCoef did     1 forward-backward iterations
 Error on total polarization charges =  0.01227
 SCF Done:  E(RPBE-PBE) =  -560.408363401     A.U. after   13 cycles
            NFock= 13  Conv=0.78D-08     -V/T= 2.0450

 **********************************************************************

            Population analysis using the SCF Density.

 **********************************************************************

 Orbital symmetries:
       Occupied  (A) (A) (A) (A) (A) (A) (A) (A) (A) (A) (A) (A)
                 (A) (A) (A) (A) (A) (A) (A) (A) (A) (A) (A) (A)
                 (A) (A) (A) (A) (A) (A) (A) (A) (A) (A) (A) (A)
                 (A) (A) (A) (A) (A) (A) (A) (A) (A) (A) (A) (A)
                 (A) (A) (A) (A) (A)
       Virtual   (A) (A) (A) (A) (A) (A) (A) (A) (A) (A) (A) (A)
                 (A) (A) (A) (A) (A) (A) (A) (A) (A) (A) (A) (A)
                 (A) (A) (A) (A) (A) (A) (A) (A) (A) (A) (A) (A)
                 (A) (A) (A) (A) (A) (A) (A) (A) (A) (A) (A) (A)
                 (A) (A) (A) (A) (A) (A) (A) (A) (A) (A) (A) (A)
                 (A) (A) (A) (A) (A) (A) (A) (A) (A) (A) (A) (A)
                 (A) (A) (A) (A) (A) (A) (A) (A) (A) (A) (A) (A)
                 (A) (A) (A) (A) (A) (A) (A) (A) (A) (A) (A) (A)
                 (A) (A) (A) (A) (A) (A) (A) (A) (A) (A) (A) (A)
                 (A) (A) (A) (A) (A) (A) (A) (A) (A) (A) (A) (A)
                 (A) (A) (A) (A) (A) (A) (A) (A) (A) (A) (A) (A)
                 (A) (A) (A) (A) (A) (A) (A) (A) (A) (A) (A) (A)
                 (A) (A) (A) (A) (A) (A) (A) (A) (A) (A) (A) (A)
                 (A) (A) (A) (A) (A) (A) (A) (A) (A) (A) (A) (A)
                 (A) (A) (A) (A) (A) (A) (A) (A) (A) (A) (A) (A)
                 (A) (A) (A) (A) (A) (A) (A) (A) (A) (A) (A) (A)
                 (A) (A) (A) (A) (A) (A) (A)
 The electronic state is 1-A.
 Alpha  occ. eigenvalues --  -14.03385 -14.01788 -14.01385 -14.01296  -9.97996
 Alpha  occ. eigenvalues --   -9.96696  -9.96225  -9.96129  -9.95029  -9.94185
 Alpha  occ. eigenvalues --   -9.94044  -9.94029  -0.85564  -0.84200  -0.83780
 Alpha  occ. eigenvalues --   -0.83704  -0.71236  -0.70342  -0.70118  -0.70106
 Alpha  occ. eigenvalues --   -0.63559  -0.62788  -0.48530  -0.46468  -0.46057
 Alpha  occ. eigenvalues --   -0.45911  -0.45483  -0.41691  -0.41599  -0.40978
 Alpha  occ. eigenvalues --   -0.40819  -0.40704  -0.40657  -0.40592  -0.40543
 Alpha  occ. eigenvalues --   -0.37399  -0.34529  -0.33705  -0.33082  -0.32113
 Alpha  occ. eigenvalues --   -0.31898  -0.30803  -0.30638  -0.30443  -0.29960
 Alpha  occ. eigenvalues --   -0.29886  -0.29719  -0.25360  -0.23572  -0.22480
 Alpha  occ. eigenvalues --   -0.22098  -0.21961  -0.21637
 Alpha virt. eigenvalues --   -0.05943  -0.05695  -0.04983  -0.02969  -0.02665
 Alpha virt. eigenvalues --   -0.01938  -0.01830  -0.01510  -0.00534   0.00321
 Alpha virt. eigenvalues --    0.01146   0.02322   0.04613   0.04807   0.06025
 Alpha virt. eigenvalues --    0.09727   0.10299   0.11301   0.11540   0.12007
 Alpha virt. eigenvalues --    0.12438   0.12603   0.13342   0.14012   0.14651
 Alpha virt. eigenvalues --    0.14776   0.14928   0.20350   0.21976   0.22925
 Alpha virt. eigenvalues --    0.23225   0.26345   0.26944   0.32342   0.36057
 Alpha virt. eigenvalues --    0.39344   0.40304   0.40752   0.41223   0.41934
 Alpha virt. eigenvalues --    0.42071   0.43054   0.44528   0.45068   0.45677
 Alpha virt. eigenvalues --    0.45780   0.46093   0.47724   0.48268   0.48807
 Alpha virt. eigenvalues --    0.49749   0.51332   0.51530   0.52025   0.53484
 Alpha virt. eigenvalues --    0.54349   0.55547   0.56027   0.56170   0.56303
 Alpha virt. eigenvalues --    0.57037   0.57348   0.57865   0.58500   0.58902
 Alpha virt. eigenvalues --    0.59904   0.60492   0.61178   0.62025   0.62567
 Alpha virt. eigenvalues --    0.63361   0.64200   0.65832   0.67279   0.68672
 Alpha virt. eigenvalues --    0.69344   0.73266   0.73830   0.74605   0.76406
 Alpha virt. eigenvalues --    0.78056   0.79857   0.80648   0.81489   0.82992
 Alpha virt. eigenvalues --    0.84040   0.85006   0.86930   0.89185   0.89587
 Alpha virt. eigenvalues --    0.89978   0.90487   0.91169   0.91824   0.92350
 Alpha virt. eigenvalues --    0.93542   0.95208   0.95530   0.96698   1.00456
 Alpha virt. eigenvalues --    1.02888   1.03142   1.03973   1.04480   1.04649
 Alpha virt. eigenvalues --    1.05054   1.05575   1.06305   1.23108   1.24606
 Alpha virt. eigenvalues --    1.24929   1.25610   1.31191   1.31640   1.31751
 Alpha virt. eigenvalues --    1.31790   1.33813   1.33922   1.34273   1.34511
 Alpha virt. eigenvalues --    1.34719   1.35641   1.35914   1.35967   1.45368
 Alpha virt. eigenvalues --    1.47779   1.48729   1.49543   1.54147   1.54190
 Alpha virt. eigenvalues --    1.54390   1.54659   1.54775   1.54795   1.55300
 Alpha virt. eigenvalues --    1.56677   1.68488   1.69981   1.70657   1.70834
 Alpha virt. eigenvalues --    1.71600   1.72187   1.72410   1.72737   1.72862
 Alpha virt. eigenvalues --    1.73314   1.73773   1.74353   1.80355   1.81316
 Alpha virt. eigenvalues --    1.81499   1.81549   1.81936   1.82172   1.82193
 Alpha virt. eigenvalues --    1.82708   1.84587   1.84724   1.84895   1.85027
 Alpha virt. eigenvalues --    2.03916   2.04025   2.04555   2.04718   2.04870
 Alpha virt. eigenvalues --    2.05122   2.05357   2.05397   2.27709   2.28934
 Alpha virt. eigenvalues --    2.29122   2.29270   2.30000   2.30382   2.30594
 Alpha virt. eigenvalues --    2.30794   2.31154   2.31303   2.31453   2.32278
 Alpha virt. eigenvalues --    2.56636   2.57312   2.57824   2.58113   2.58216
 Alpha virt. eigenvalues --    2.58437   2.59224   2.59292   2.63147   2.64207
 Alpha virt. eigenvalues --    2.64690   2.65597   2.73413   2.74548   2.76630
 Alpha virt. eigenvalues --    2.83662   9.37864  18.20321  18.60218
          Condensed to atoms (all electrons):
               1          2          3          4          5          6
     1  Pb   2.953275   0.085428   0.072517  -0.001045  -0.000022   0.000079
     2  Br   0.085428   7.507148  -0.005759   0.000001   0.000000   0.000000
     3  Br   0.072517  -0.005759   7.505467  -0.008881   0.000261   0.000265
     4  C   -0.001045   0.000001  -0.008881   4.558377   0.374298   0.371833
     5  H   -0.000022   0.000000   0.000261   0.374298   0.562700  -0.018699
     6  H    0.000079   0.000000   0.000265   0.371833  -0.018699   0.561052
     7  H   -0.001131  -0.000002   0.023352   0.367257  -0.017752  -0.017079
     8  C   -0.024685   0.000036   0.001209   0.394380  -0.009283  -0.006380
     9  N    0.034783   0.000034  -0.002680  -0.055795  -0.000973  -0.000428
    10  C    0.000035  -0.009622   0.000001  -0.000000   0.000000  -0.000000
    11  H    0.000075   0.000310   0.000000   0.000000   0.000000   0.000000
    12  H    0.000076   0.000308   0.000000  -0.000000   0.000000  -0.000000
    13  H   -0.001084   0.024029  -0.000001   0.000000   0.000000  -0.000000
    14  C   -0.021980   0.000901   0.000034   0.000000   0.000000  -0.000000
    15  N    0.036284  -0.002797   0.000039  -0.000000  -0.000000  -0.000000
    16  C   -0.000127   0.000003  -0.007308  -0.000000  -0.000000   0.000000
    17  H    0.000053  -0.000001   0.000296   0.000000  -0.000000   0.000000
    18  H    0.000141   0.000030   0.000285   0.000000   0.000000   0.000000
    19  H   -0.000966   0.000000   0.021869   0.000001  -0.000000  -0.000000
    20  C   -0.020921   0.000111   0.001384   0.000000  -0.000000   0.000000
    21  N    0.045292  -0.001320  -0.003850  -0.000000  -0.000000   0.000000
    22  C   -0.000776   0.000002   0.000016   0.000003   0.000143  -0.000001
    23  H   -0.000026   0.000023  -0.000001   0.000004   0.000002   0.000000
    24  H   -0.000076  -0.000001  -0.000000   0.000003   0.000151  -0.000003
    25  H    0.000019   0.000003   0.000079   0.000003   0.000038  -0.000001
    26  C   -0.027689  -0.000513  -0.000047   0.000851   0.000537   0.000021
    27  N    0.018551  -0.002960  -0.003069   0.000623   0.000074   0.000033
               7          8          9         10         11         12
     1  Pb  -0.001131  -0.024685   0.034783   0.000035   0.000075   0.000076
     2  Br  -0.000002   0.000036   0.000034  -0.009622   0.000310   0.000308
     3  Br   0.023352   0.001209  -0.002680   0.000001   0.000000   0.000000
     4  C    0.367257   0.394380  -0.055795  -0.000000   0.000000  -0.000000
     5  H   -0.017752  -0.009283  -0.000973   0.000000   0.000000   0.000000
     6  H   -0.017079  -0.006380  -0.000428  -0.000000   0.000000  -0.000000
     7  H    0.562386  -0.013569  -0.002599   0.000000   0.000000  -0.000000
     8  C   -0.013569   4.696511   1.006197  -0.000000   0.000000  -0.000000
     9  N   -0.002599   1.006197   6.237583  -0.000000  -0.000000  -0.000000
    10  C    0.000000  -0.000000  -0.000000   4.549142   0.374189   0.371672
    11  H    0.000000   0.000000  -0.000000   0.374189   0.562696  -0.018796
    12  H   -0.000000  -0.000000  -0.000000   0.371672  -0.018796   0.560797
    13  H   -0.000000  -0.000000   0.000000   0.367259  -0.017512  -0.017004
    14  C   -0.000000   0.000004  -0.000049   0.398808  -0.008904  -0.006167
    15  N    0.000000  -0.000032  -0.000077  -0.052672  -0.000886  -0.000440
    16  C    0.000001   0.000001  -0.000000   0.000000  -0.000000   0.000000
    17  H   -0.000000   0.000000   0.000000   0.000000  -0.000000   0.000000
    18  H   -0.000000  -0.000000  -0.000000   0.000000  -0.000000   0.000000
    19  H   -0.000000  -0.000001  -0.000000   0.000000  -0.000000  -0.000000
    20  C   -0.000000   0.000001  -0.000003   0.000000  -0.000000   0.000000
    21  N    0.000000   0.000002  -0.000001   0.000000  -0.000000   0.000000
    22  C   -0.000015   0.000008  -0.000005  -0.000004   0.000001   0.000000
    23  H    0.000001   0.000000  -0.000000   0.000012   0.000037  -0.000001
    24  H   -0.000010   0.000061   0.000010  -0.000000  -0.000004   0.000000
    25  H    0.000016  -0.000006  -0.000000   0.000000   0.000001   0.000000
    26  C    0.000303   0.000492  -0.000460   0.000239   0.000198   0.000005
    27  N    0.000119   0.002425  -0.001861   0.000282   0.000104   0.000011
              13         14         15         16         17         18
     1  Pb  -0.001084  -0.021980   0.036284  -0.000127   0.000053   0.000141
     2  Br   0.024029   0.000901  -0.002797   0.000003  -0.000001   0.000030
     3  Br  -0.000001   0.000034   0.000039  -0.007308   0.000296   0.000285
     4  C    0.000000   0.000000  -0.000000  -0.000000   0.000000   0.000000
     5  H    0.000000   0.000000  -0.000000  -0.000000  -0.000000   0.000000
     6  H   -0.000000  -0.000000  -0.000000   0.000000   0.000000   0.000000
     7  H   -0.000000  -0.000000   0.000000   0.000001  -0.000000  -0.000000
     8  C   -0.000000   0.000004  -0.000032   0.000001   0.000000  -0.000000
     9  N    0.000000  -0.000049  -0.000077  -0.000000   0.000000  -0.000000
    10  C    0.367259   0.398808  -0.052672   0.000000   0.000000   0.000000
    11  H   -0.017512  -0.008904  -0.000886  -0.000000  -0.000000  -0.000000
    12  H   -0.017004  -0.006167  -0.000440   0.000000   0.000000   0.000000
    13  H    0.561999  -0.013993  -0.002667  -0.000000   0.000000  -0.000000
    14  C   -0.013993   4.687636   0.999973   0.000000   0.000000   0.000000
    15  N   -0.002667   0.999973   6.243332   0.000000   0.000000   0.000000
    16  C   -0.000000   0.000000   0.000000   4.531906   0.373257   0.373666
    17  H    0.000000   0.000000   0.000000   0.373257   0.558267  -0.018507
    18  H   -0.000000   0.000000   0.000000   0.373666  -0.018507   0.557744
    19  H    0.000000  -0.000000   0.000000   0.367738  -0.016895  -0.017047
    20  C   -0.000000   0.000003   0.000005   0.407086  -0.007337  -0.007606
    21  N    0.000000   0.000009   0.000001  -0.049533  -0.000686  -0.000763
    22  C   -0.000004   0.000030   0.000004   0.000000  -0.000000   0.000000
    23  H   -0.000000   0.000009   0.000002  -0.000000  -0.000000  -0.000000
    24  H    0.000000   0.000003   0.000001  -0.000000  -0.000000  -0.000000
    25  H    0.000000  -0.000000  -0.000000   0.000000  -0.000000  -0.000000
    26  C    0.000105   0.000820  -0.000097   0.000000  -0.000000   0.000000
    27  N    0.000054   0.001951  -0.001686   0.000000   0.000000   0.000000
              19         20         21         22         23         24
     1  Pb  -0.000966  -0.020921   0.045292  -0.000776  -0.000026  -0.000076
     2  Br   0.000000   0.000111  -0.001320   0.000002   0.000023  -0.000001
     3  Br   0.021869   0.001384  -0.003850   0.000016  -0.000001  -0.000000
     4  C    0.000001   0.000000  -0.000000   0.000003   0.000004   0.000003
     5  H   -0.000000  -0.000000  -0.000000   0.000143   0.000002   0.000151
     6  H   -0.000000   0.000000   0.000000  -0.000001   0.000000  -0.000003
     7  H   -0.000000  -0.000000   0.000000  -0.000015   0.000001  -0.000010
     8  C   -0.000001   0.000001   0.000002   0.000008   0.000000   0.000061
     9  N   -0.000000  -0.000003  -0.000001  -0.000005  -0.000000   0.000010
    10  C    0.000000   0.000000   0.000000  -0.000004   0.000012  -0.000000
    11  H   -0.000000  -0.000000  -0.000000   0.000001   0.000037  -0.000004
    12  H   -0.000000   0.000000   0.000000   0.000000  -0.000001   0.000000
    13  H    0.000000  -0.000000   0.000000  -0.000004  -0.000000   0.000000
    14  C   -0.000000   0.000003   0.000009   0.000030   0.000009   0.000003
    15  N    0.000000   0.000005   0.000001   0.000004   0.000002   0.000001
    16  C    0.367738   0.407086  -0.049533   0.000000  -0.000000  -0.000000
    17  H   -0.016895  -0.007337  -0.000686  -0.000000  -0.000000  -0.000000
    18  H   -0.017047  -0.007606  -0.000763   0.000000  -0.000000  -0.000000
    19  H    0.560079  -0.013997  -0.002731  -0.000000   0.000000   0.000000
    20  C   -0.013997   4.676697   0.981968   0.000000  -0.000000  -0.000000
    21  N   -0.002731   0.981968   6.261653   0.000000   0.000000  -0.000000
    22  C   -0.000000   0.000000   0.000000   4.498479   0.374581   0.376308
    23  H    0.000000  -0.000000   0.000000   0.374581   0.549373  -0.017329
    24  H    0.000000  -0.000000  -0.000000   0.376308  -0.017329   0.549432
    25  H   -0.000000  -0.000000   0.000000   0.374887  -0.017173  -0.017345
    26  C   -0.000000   0.000001   0.000002   0.421072  -0.007761  -0.009354
    27  N    0.000000   0.000010   0.000012  -0.048071  -0.001205  -0.001450
              25         26         27
     1  Pb   0.000019  -0.027689   0.018551
     2  Br   0.000003  -0.000513  -0.002960
     3  Br   0.000079  -0.000047  -0.003069
     4  C    0.000003   0.000851   0.000623
     5  H    0.000038   0.000537   0.000074
     6  H   -0.000001   0.000021   0.000033
     7  H    0.000016   0.000303   0.000119
     8  C   -0.000006   0.000492   0.002425
     9  N   -0.000000  -0.000460  -0.001861
    10  C    0.000000   0.000239   0.000282
    11  H    0.000001   0.000198   0.000104
    12  H    0.000000   0.000005   0.000011
    13  H    0.000000   0.000105   0.000054
    14  C   -0.000000   0.000820   0.001951
    15  N   -0.000000  -0.000097  -0.001686
    16  C    0.000000   0.000000   0.000000
    17  H   -0.000000  -0.000000   0.000000
    18  H   -0.000000   0.000000   0.000000
    19  H   -0.000000  -0.000000   0.000000
    20  C   -0.000000   0.000001   0.000010
    21  N    0.000000   0.000002   0.000012
    22  C    0.374887   0.421072  -0.048071
    23  H   -0.017173  -0.007761  -0.001205
    24  H   -0.017345  -0.009354  -0.001450
    25  H    0.549004  -0.008228  -0.001295
    26  C   -0.008228   4.640358   0.971753
    27  N   -0.001295   0.971753   6.303584
 Mulliken charges:
               1
     1  Pb   0.853923
     2  Br  -0.595390
     3  Br  -0.595478
     4  C   -0.001914
     5  H    0.108525
     6  H    0.109307
     7  H    0.098722
     8  C   -0.047371
     9  N   -0.213673
    10  C    0.000659
    11  H    0.108492
    12  H    0.109538
    13  H    0.098820
    14  C   -0.039087
    15  N   -0.218286
    16  C    0.003310
    17  H    0.111552
    18  H    0.112058
    19  H    0.101950
    20  C   -0.017401
    21  N   -0.230055
    22  C    0.003342
    23  H    0.119454
    24  H    0.119601
    25  H    0.119999
    26  C    0.017391
    27  N   -0.237989
 Sum of Mulliken charges =  -0.00000
 Mulliken charges with hydrogens summed into heavy atoms:
               1
     1  Pb   0.853923
     2  Br  -0.595390
     3  Br  -0.595478
     4  C    0.314640
     8  C   -0.047371
     9  N   -0.213673
    10  C    0.317510
    14  C   -0.039087
    15  N   -0.218286
    16  C    0.328871
    20  C   -0.017401
    21  N   -0.230055
    22  C    0.362396
    26  C    0.017391
    27  N   -0.237989
 Electronic spatial extent (au):  <R**2>=           5393.5027
 Charge=             -0.0000 electrons
 Dipole moment (field-independent basis, Debye):
    X=              5.7202    Y=              8.4028    Z=             -0.0778  Tot=             10.1654
 Quadrupole moment (field-independent basis, Debye-Ang):
   XX=            -56.9322   YY=            -88.1622   ZZ=           -131.7591
   XY=             19.7515   XZ=             14.9167   YZ=             13.1082
 Traceless Quadrupole moment (field-independent basis, Debye-Ang):
   XX=             35.3524   YY=              4.1223   ZZ=            -39.4746
   XY=             19.7515   XZ=             14.9167   YZ=             13.1082
 Octapole moment (field-independent basis, Debye-Ang**2):
  XXX=              3.8639  YYY=            118.1517  ZZZ=             24.8506  XYY=             23.0640
  XXY=            -65.2242  XXZ=             19.0149  XZZ=             -0.0618  YZZ=             -3.3036
  YYZ=              3.8191  XYZ=             56.3838
 Hexadecapole moment (field-independent basis, Debye-Ang**3):
 XXXX=          -2505.3564 YYYY=          -2421.9169 ZZZZ=          -1229.0914 XXXY=            122.6844
 XXXZ=             95.6746 YYYX=            -22.3576 YYYZ=             28.1705 ZZZX=             43.6107
 ZZZY=             49.4355 XXYY=           -813.7524 XXZZ=           -810.2297 YYZZ=           -701.3450
 XXYZ=             94.0927 YYXZ=             52.1426 ZZXY=             22.2717
 N-N= 7.217419895092D+02 E-N=-2.735849635782D+03  KE= 5.362706360455D+02
   1 Symmetry operations used in ECPInt.
 ECPInt:  NShTT=    7260 NPrTT=   51303 LenC2=    6446 LenP2D=   25544.
 LDataN:  DoStor=T MaxTD1= 7 Len=  274
 D1PCM: PCM CHGder 1st derivatives, ID1Alg=3 FixD1E=F DoIter=F DoCFld=F I1PDM=0.
 Calling FoFJK, ICntrl=      2527 FMM=F ISym2X=0 I1Cent= 0 IOpClX= 0 NMat=1 NMatS=1 NMatT=0.
 Defaulting to unpruned grid for atomic number  82.
 Defaulting to unpruned grid for atomic number  82.
 Defaulting to unpruned grid for atomic number  82.
 Defaulting to unpruned grid for atomic number  82.
 ***** Axes restored to original set *****
 -------------------------------------------------------------------
 Center     Atomic                   Forces (Hartrees/Bohr)
 Number     Number              X              Y              Z
 -------------------------------------------------------------------
      1       82          -0.000003104   -0.000000883    0.000002356
      2       35           0.000000983   -0.000003967   -0.000008958
      3       35           0.000001717   -0.000004586   -0.000001461
      4        6          -0.000006861    0.000011093    0.000034532
      5        1          -0.000039803   -0.000018269   -0.000007543
      6        1           0.000025334   -0.000017422    0.000027299
      7        1           0.000027550    0.000016433   -0.000040361
      8        6           0.000010953    0.000005362    0.000021948
      9        7          -0.000008904    0.000006585    0.000001070
     10        6          -0.000027203    0.000082498   -0.000057248
     11        1          -0.000048671   -0.000032838   -0.000017792
     12        1          -0.000007599    0.000030751   -0.000005202
     13        1          -0.000014370    0.000006126   -0.000001965
     14        6          -0.000018988    0.000063904   -0.000036275
     15        7           0.000106062   -0.000103881    0.000098258
     16        6          -0.000021448   -0.000040802   -0.000029790
     17        1           0.000047151   -0.000017199    0.000035863
     18        1           0.000014670    0.000026901   -0.000016164
     19        1          -0.000001338    0.000012498    0.000018454
     20        6           0.000023243   -0.000009319   -0.000023025
     21        7          -0.000059416    0.000002425    0.000035430
     22        6           0.000009333    0.000040008    0.000039703
     23        1           0.000009767    0.000000161   -0.000008052
     24        1          -0.000012182   -0.000010951    0.000001916
     25        1           0.000018278   -0.000029339   -0.000039174
     26        6          -0.000054590   -0.000038912   -0.000046471
     27        7           0.000029436    0.000023622    0.000022651
 -------------------------------------------------------------------
 Cartesian Forces:  Max     0.000106062 RMS     0.000033588

 GradGradGradGradGradGradGradGradGradGradGradGradGradGradGradGradGradGrad
 Berny optimization.
 FormGI is forming the generalized inverse of G from B-inverse, IUseBI=4.
 Internal  Forces:  Max     0.000178164 RMS     0.000027803
 Search for a local minimum.
 Step number   1 out of a maximum of  148
 All quantities printed in internal units (Hartrees-Bohrs-Radians)
 Mixed Optimization -- En-DIIS/RFO-DIIS
 Second derivative matrix not updated -- first step.
 ITU=  0
     Eigenvalues ---    0.00230   0.00230   0.00230   0.00233   0.00235
     Eigenvalues ---    0.00292   0.00371   0.01439   0.01563   0.01771
     Eigenvalues ---    0.02110   0.02339   0.02487   0.02510   0.03065
     Eigenvalues ---    0.03839   0.03863   0.04381   0.04420   0.04482
     Eigenvalues ---    0.04652   0.04680   0.05672   0.06929   0.07254
     Eigenvalues ---    0.07358   0.07412   0.07511   0.07649   0.07748
     Eigenvalues ---    0.08491   0.08873   0.09384   0.09715   0.10029
     Eigenvalues ---    0.10308   0.10406   0.11419   0.11482   0.11643
     Eigenvalues ---    0.11885   0.12192   0.12513   0.14965   0.16000
     Eigenvalues ---    0.16000   0.16000   0.16000   0.16000   0.16000
     Eigenvalues ---    0.17037   0.17413   0.19949   0.20017   0.25000
     Eigenvalues ---    0.32104   0.32159   0.32628   0.32900   0.32904
     Eigenvalues ---    0.32912   0.32915   0.32924   0.32926   0.32928
     Eigenvalues ---    0.32930   0.32931   0.37348   0.37447   0.38213
     Eigenvalues ---    0.38275   1.14787   1.14970   1.17956   1.20836
 RFO step:  Lambda=-2.25551163D-06 EMin= 2.30000000D-03
 Linear search not attempted -- first point.
 Iteration  1 RMS(Cart)=  0.00664721 RMS(Int)=  0.00000960
 Iteration  2 RMS(Cart)=  0.00001622 RMS(Int)=  0.00000133
 Iteration  3 RMS(Cart)=  0.00000000 RMS(Int)=  0.00000133
 Variable       Old X    -DE/DX   Delta X   Delta X   Delta X     New X
                                 (Linear)    (Quad)   (Total)
    R1        5.40481  -0.00001   0.00000  -0.00040  -0.00040   5.40441
    R2        5.45296  -0.00001   0.00000  -0.00030  -0.00030   5.45267
    R3        5.49718  -0.00000   0.00000  -0.00029  -0.00029   5.49689
    R4        5.44186  -0.00000   0.00000  -0.00063  -0.00063   5.44123
    R5        5.28039   0.00001   0.00000   0.00022   0.00022   5.28060
    R6        4.84586  -0.00002   0.00000  -0.00039  -0.00039   4.84547
    R7        5.69232  -0.00002   0.00000  -0.00026  -0.00026   5.69206
    R8        5.73486   0.00000   0.00000   0.00061   0.00061   5.73548
    R9        2.09221  -0.00004   0.00000  -0.00013  -0.00013   2.09208
   R10        2.09182  -0.00004   0.00000  -0.00012  -0.00012   2.09170
   R11        2.09730  -0.00005   0.00000  -0.00012  -0.00012   2.09718
   R12        2.74256  -0.00002   0.00000  -0.00001  -0.00001   2.74255
   R13        2.22257  -0.00000   0.00000   0.00001   0.00001   2.22257
   R14        2.09200  -0.00006   0.00000  -0.00019  -0.00019   2.09182
   R15        2.09179  -0.00003   0.00000  -0.00008  -0.00008   2.09171
   R16        2.09761   0.00000   0.00000   0.00008   0.00008   2.09769
   R17        2.74228  -0.00012   0.00000  -0.00029  -0.00029   2.74199
   R18        2.22274  -0.00018   0.00000  -0.00014  -0.00014   2.22259
   R19        2.09175  -0.00006   0.00000  -0.00017  -0.00017   2.09158
   R20        2.09174  -0.00004   0.00000  -0.00012  -0.00012   2.09162
   R21        2.09710   0.00002   0.00000   0.00006   0.00006   2.09717
   R22        2.74056  -0.00003   0.00000  -0.00008  -0.00008   2.74048
   R23        2.22204  -0.00006   0.00000  -0.00005  -0.00005   2.22199
   R24        2.09184   0.00001   0.00000   0.00002   0.00002   2.09186
   R25        2.09206  -0.00001   0.00000  -0.00004  -0.00004   2.09202
   R26        2.09227  -0.00005   0.00000  -0.00015  -0.00015   2.09212
   R27        2.73967   0.00001   0.00000   0.00003   0.00003   2.73970
   R28        2.21293  -0.00007   0.00000  -0.00006  -0.00006   2.21288
    A1        1.65097  -0.00001   0.00000   0.00017   0.00017   1.65115
    A2        2.76419  -0.00002   0.00000  -0.00024  -0.00025   2.76394
    A3        1.52402   0.00001   0.00000  -0.00028  -0.00028   1.52374
    A4        1.53168  -0.00001   0.00000  -0.00002  -0.00001   1.53167
    A5        1.47287   0.00000   0.00000  -0.00003  -0.00003   1.47284
    A6        1.51645   0.00000   0.00000  -0.00028  -0.00028   1.51617
    A7        2.72943  -0.00004   0.00000  -0.00030  -0.00030   2.72913
    A8        1.51208   0.00001   0.00000   0.00017   0.00017   1.51225
    A9        1.44541   0.00001   0.00000   0.00014   0.00014   1.44555
   A10        1.44840  -0.00003   0.00000   0.00017   0.00017   1.44857
   A11        1.98730   0.00003   0.00000   0.00026   0.00026   1.98756
   A12        1.29812  -0.00003   0.00000  -0.00024  -0.00024   1.29788
   A13        2.04156   0.00002   0.00000   0.00013   0.00013   2.04170
   A14        1.29041  -0.00005   0.00000  -0.00046  -0.00046   1.28995
   A15        1.67625  -0.00005   0.00000  -0.00088  -0.00089   1.67536
   A16        1.63748  -0.00001   0.00000  -0.00067  -0.00067   1.63681
   A17        1.90681  -0.00001   0.00000  -0.00005  -0.00005   1.90675
   A18        1.91161   0.00000   0.00000   0.00002   0.00002   1.91163
   A19        1.92278   0.00000   0.00000   0.00000   0.00000   1.92278
   A20        1.90979   0.00000   0.00000   0.00000   0.00000   1.90980
   A21        1.92658   0.00001   0.00000   0.00007   0.00007   1.92665
   A22        1.88610  -0.00000   0.00000  -0.00004  -0.00004   1.88607
   A23        2.32799   0.00002   0.00000  -0.00003  -0.00003   2.32795
   A24        1.93348  -0.00001   0.00000  -0.00030  -0.00030   1.93318
   A25        1.90775   0.00000   0.00000  -0.00000  -0.00000   1.90775
   A26        1.91204  -0.00001   0.00000  -0.00004  -0.00004   1.91201
   A27        1.92375  -0.00000   0.00000  -0.00002  -0.00002   1.92374
   A28        1.90987   0.00000   0.00000   0.00002   0.00002   1.90990
   A29        1.92624  -0.00001   0.00000  -0.00012  -0.00012   1.92612
   A30        1.88400   0.00002   0.00000   0.00015   0.00015   1.88415
   A31        2.32646   0.00001   0.00000   0.00006   0.00006   2.32652
   A32        1.97557   0.00001   0.00000  -0.00036  -0.00037   1.97520
   A33        1.90882   0.00000   0.00000   0.00001   0.00001   1.90882
   A34        1.91143   0.00000   0.00000   0.00002   0.00002   1.91145
   A35        1.92499  -0.00001   0.00000  -0.00007  -0.00007   1.92492
   A36        1.91087  -0.00000   0.00000   0.00000   0.00000   1.91087
   A37        1.92424  -0.00000   0.00000  -0.00004  -0.00004   1.92421
   A38        1.88329   0.00001   0.00000   0.00008   0.00008   1.88337
   A39        2.06894   0.00002   0.00000   0.00006   0.00006   2.06900
   A40        1.90618   0.00002   0.00000   0.00003   0.00003   1.90621
   A41        1.90581  -0.00000   0.00000   0.00004   0.00004   1.90584
   A42        1.91632   0.00001   0.00000   0.00005   0.00005   1.91637
   A43        1.90615   0.00000   0.00000   0.00004   0.00004   1.90619
   A44        1.91514  -0.00001   0.00000  -0.00008  -0.00008   1.91505
   A45        1.91414  -0.00002   0.00000  -0.00008  -0.00008   1.91407
   A46        3.00455  -0.00000   0.00000  -0.00005  -0.00005   3.00450
   A47        3.10935   0.00000   0.00000  -0.00067  -0.00067   3.10868
   A48        3.10989  -0.00000   0.00000  -0.00116  -0.00117   3.10873
   A49        3.11466   0.00000   0.00000   0.00011   0.00011   3.11477
   A50        3.13880   0.00001   0.00000   0.00029   0.00029   3.13909
   A51        3.09507   0.00001   0.00000   0.00029   0.00029   3.09536
   A52        3.33806  -0.00003   0.00000  -0.00028  -0.00028   3.33778
   A53        3.15077   0.00000   0.00000   0.00030   0.00030   3.15108
   A54        3.13495   0.00000   0.00000  -0.00011  -0.00011   3.13485
   A55        3.14071  -0.00002   0.00000  -0.00034  -0.00034   3.14037
   A56        3.14409  -0.00002   0.00000  -0.00070  -0.00070   3.14339
   A57        3.11357   0.00007   0.00000   0.00158   0.00158   3.11516
    D1       -2.46969   0.00003   0.00000   0.00455   0.00455  -2.46514
    D2       -0.84405   0.00002   0.00000   0.00419   0.00419  -0.83986
    D3        0.26023  -0.00001   0.00000   0.00424   0.00423   0.26447
    D4        2.30480   0.00002   0.00000   0.00439   0.00439   2.30919
    D5       -1.03326   0.00004   0.00000   0.00467   0.00467  -1.02859
    D6        2.38305  -0.00002   0.00000  -0.00252  -0.00252   2.38053
    D7       -0.38115   0.00000   0.00000  -0.00227  -0.00226  -0.38341
    D8        0.74553  -0.00002   0.00000  -0.00215  -0.00215   0.74338
    D9       -2.37337  -0.00003   0.00000  -0.00254  -0.00254  -2.37591
   D10        0.92146  -0.00003   0.00000  -0.00248  -0.00248   0.91898
   D11       -1.16190   0.00001   0.00000   0.00354   0.00354  -1.15836
   D12        0.48942  -0.00000   0.00000   0.00327   0.00328   0.49270
   D13       -2.27912   0.00003   0.00000   0.00356   0.00356  -2.27556
   D14        1.97177   0.00001   0.00000   0.00332   0.00332   1.97508
   D15       -0.96629  -0.00001   0.00000   0.00305   0.00305  -0.96324
   D16       -0.32978  -0.00001   0.00000  -0.00631  -0.00631  -0.33609
   D17        1.33424  -0.00002   0.00000  -0.00657  -0.00657   1.32767
   D18        2.47381  -0.00003   0.00000  -0.00653  -0.00653   2.46728
   D19       -1.83277  -0.00001   0.00000  -0.00614  -0.00614  -1.83891
   D20        1.15253  -0.00001   0.00000  -0.00626  -0.00626   1.14627
   D21        1.59859  -0.00001   0.00000  -0.00188  -0.00188   1.59671
   D22       -0.05489   0.00000   0.00000  -0.00205  -0.00205  -0.05694
   D23       -1.54007  -0.00001   0.00000  -0.00180  -0.00180  -1.54187
   D24        3.09690  -0.00000   0.00000  -0.00222  -0.00222   3.09469
   D25        0.63635   0.00002   0.00000   0.00176   0.00176   0.63811
   D26        2.74630   0.00001   0.00000   0.00091   0.00091   2.74721
   D27       -1.45958   0.00001   0.00000   0.00120   0.00120  -1.45838
   D28        2.30130   0.00001   0.00000   0.00179   0.00179   2.30309
   D29       -1.87194  -0.00000   0.00000   0.00094   0.00094  -1.87100
   D30        0.20536  -0.00000   0.00000   0.00123   0.00123   0.20660
   D31       -2.42369   0.00000   0.00000   0.00127   0.00127  -2.42242
   D32       -0.31374  -0.00001   0.00000   0.00042   0.00042  -0.31332
   D33        1.76356  -0.00001   0.00000   0.00071   0.00071   1.76427
   D34       -0.90776   0.00001   0.00000   0.00200   0.00200  -0.90576
   D35        1.20219  -0.00000   0.00000   0.00115   0.00115   1.20334
   D36       -3.00370  -0.00000   0.00000   0.00144   0.00144  -3.00226
   D37       -0.26030   0.00001   0.00000  -0.00200  -0.00200  -0.26229
   D38        0.36822  -0.00000   0.00000   0.00129   0.00129   0.36951
   D39       -2.10515   0.00000   0.00000   0.00122   0.00122  -2.10393
   D40        2.08823   0.00001   0.00000   0.00127   0.00127   2.08950
   D41       -0.01023   0.00000   0.00000   0.00121   0.00121  -0.00902
   D42        1.71689  -0.00000   0.00000  -0.00319  -0.00319   1.71370
   D43       -2.44953  -0.00001   0.00000  -0.00302  -0.00302  -2.45254
   D44       -0.36435  -0.00000   0.00000  -0.00303  -0.00302  -0.36737
   D45        2.11512  -0.00000   0.00000  -0.00242  -0.00242   2.11270
   D46       -2.07681  -0.00000   0.00000  -0.00242  -0.00243  -2.07923
   D47        0.02003  -0.00001   0.00000  -0.00247  -0.00247   0.01756
   D48       -1.84199   0.00001   0.00000   0.00623   0.00623  -1.83576
   D49        2.32297   0.00002   0.00000   0.00598   0.00598   2.32895
   D50        0.23972   0.00001   0.00000   0.00607   0.00607   0.24579
   D51        2.13341   0.00001   0.00000   0.00189   0.00189   2.13529
   D52       -2.03214   0.00000   0.00000   0.00179   0.00179  -2.03035
   D53        0.04984   0.00000   0.00000   0.00176   0.00176   0.05160
         Item               Value     Threshold  Converged?
 Maximum Force            0.000178     0.000450     YES
 RMS     Force            0.000028     0.000300     YES
 Maximum Displacement     0.028511     0.001800     NO 
 RMS     Displacement     0.006652     0.001200     NO 
 Predicted change in Energy=-1.124906D-06
 GradGradGradGradGradGradGradGradGradGradGradGradGradGradGradGradGradGrad

                          Input orientation:                          
 ---------------------------------------------------------------------
 Center     Atomic      Atomic             Coordinates (Angstroms)
 Number     Number       Type             X           Y           Z
 ---------------------------------------------------------------------
      1         82           0       -0.086617   -0.207073   -0.615795
      2         35           0        0.750059   -2.197167    1.259962
      3         35           0       -1.922257    1.071660    1.206555
      4          6           0       -0.541425    4.296088   -0.456804
      5          1           0        0.405416    4.779433   -0.147781
      6          1           0       -1.197170    5.049661   -0.933580
      7          1           0       -1.050894    3.874579    0.434478
      8          6           0       -0.270217    3.207154   -1.377088
      9          7           0       -0.057219    2.298605   -2.092954
     10          6           0        4.195347   -1.792912   -0.430530
     11          1           0        4.956745   -1.061713   -0.097450
     12          1           0        4.695254   -2.625609   -0.961475
     13          1           0        3.651671   -2.190954    0.451619
     14          6           0        3.227748   -1.148962   -1.299136
     15          7           0        2.416659   -0.629809   -1.974363
     16          6           0       -4.466214   -1.609415   -0.002379
     17          1           0       -5.295070   -1.398583   -0.704937
     18          1           0       -4.700594   -2.521919    0.578564
     19          1           0       -4.340180   -0.751691    0.690456
     20          6           0       -3.223002   -1.782366   -0.728732
     21          7           0       -2.202321   -1.899189   -1.300683
     22          6           0        3.276871    2.889815    1.825344
     23          1           0        4.180071    2.333351    2.141488
     24          1           0        3.574995    3.715188    1.150485
     25          1           0        2.777988    3.311944    2.718989
     26          6           0        2.366938    1.997302    1.134457
     27          7           0        1.629248    1.278501    0.577328
 ---------------------------------------------------------------------
                    Distance matrix (angstroms):
                    1          2          3          4          5
     1  Pb   0.000000
     2  Br   2.859889   0.000000
     3  Br   2.885427   4.222482   0.000000
     4  C    4.528862   6.839414   3.882061   0.000000
     5  H    5.032532   7.125551   4.582561   1.107079   0.000000
     6  H    5.382153   7.817918   4.574977   1.106882   1.805210
     7  H    4.323516   6.386780   3.035083   1.109780   1.810697
     8  C    3.502888   6.099319   3.736947   1.451294   2.107069
     9  N    2.908829   5.666191   3.983782   2.627048   3.186258
    10  C    4.569947   3.858911   6.950604   7.714507   7.592051
[...]
 43486,-0.00463489,-0.00381226,-0.02466361,0.00656033,0.01179990,0.0255
 0149,-0.00321704,-0.01288680,-0.10865072,0.11746351,0.00398227,0.00225
 044,0.00062076,-0.00057861,0.00003009,-0.00039929,0.00068881,-0.000214
 12,-0.00064084,0.00004334,0.00000002,-0.00008364,0.00000385,0.00000216
 ,-0.00000669,-0.00000853,-0.00000856,0.00000121,-0.00002965,-0.0000680
 7,0.00002500,-0.00000843,0.00007206,0.00008953,0.00007819,-0.00017615,
 0.00006041,-0.00000924,0.00002176,-0.00003683,-0.00000157,-0.00000050,
 -0.00000109,-0.00000960,-0.00000593,0.00000291,0.00001542,-0.00000585,
 -0.00000081,0.00008361,-0.00001513,0.00004748,-0.00020242,0.00010069,0
 .00005792,0.09384948,-0.00920295,-0.12387918,-0.01257914,0.00100917,0.
 01376138,0.01737062,-0.00415165,-0.01440367,0.01942444,-0.00351592,-0.
 01596388,-0.59454516,0.06441750,0.45901932,-0.00020930,-0.00083026,0.0
 0015341,-0.00125522,0.00080388,-0.00122517,0.00156051,-0.00104274,-0.0
 0140753,0.00008566,-0.00000037,-0.00020676,0.00000494,-0.00001463,-0.0
 0002826,-0.00003149,-0.00004280,-0.00001233,-0.00002767,-0.00004822,-0
 .00001836,-0.00007673,0.00017562,0.00039057,0.00019268,-0.00144477,0.0
 0081869,0.00001079,0.00004817,-0.00015254,-0.00000720,0.00000370,-0.00
 002838,-0.00004221,-0.00001755,-0.00000586,0.00000244,-0.00002092,-0.0
 0002075,0.00008353,-0.00006391,0.00026461,-0.00117026,0.00053974,0.000
 75309,-0.00426677,0.00443559,0.01575437,0.00300047,-0.00051997,0.00094
 235,-0.00054429,0.00311575,-0.00061611,-0.00397325,-0.00386072,-0.0007
 0128,-0.84070875,0.08354161,0.47299716,0.85122616,-0.00203007,-0.00303
 733,0.00160800,0.00019656,0.00147977,-0.00071419,0.00049230,-0.0014041
 7,-0.00149573,0.00004813,-0.00000941,-0.00012348,0.00000114,-0.0000094
 4,-0.00002099,-0.00002270,-0.00003156,-0.00000841,-0.00000878,0.000016
 17,-0.00002931,-0.00007278,0.00007493,0.00022383,0.00017659,-0.0010134
 4,0.00066813,0.00003008,0.00007578,-0.00018223,-0.00000859,0.00000613,
 -0.00003044,-0.00004112,-0.00001951,-0.00001362,-0.00006644,-0.0000251
 7,-0.00001797,0.00013861,-0.00011424,0.00033945,-0.00128312,0.00047740
 ,0.00068742,0.00245343,0.01905208,-0.00170292,-0.00045781,0.00135464,0
 .00043219,0.00343843,-0.00131770,-0.00087499,-0.00382728,0.00004521,0.
 00117133,0.08552526,-0.04720225,-0.05006838,-0.08159884,0.03419279,-0.
 00166891,0.00024630,0.00012306,-0.00058589,-0.00005297,-0.00037042,-0.
 00011919,-0.00090266,-0.00048085,0.00004574,-0.00000804,-0.00008137,-0
 .00000002,-0.00000823,-0.00000662,-0.00001512,-0.00001543,-0.00000307,
 -0.00000108,0.00001065,-0.00002622,-0.00004154,0.00005672,0.00013922,0
 .00000035,-0.00071924,0.00033906,-0.00000619,0.00005081,-0.00010313,-0
 .00000326,0.00000160,-0.00000951,-0.00001947,-0.00001240,0.00000316,-0
 .00000788,-0.00001790,-0.00000352,0.00000253,-0.00003796,0.00013237,-0
 .00059690,0.00019393,0.00029489,0.01432716,-0.00248672,0.01053098,0.00
 153305,0.00017265,-0.00405488,-0.00084281,-0.00050492,0.00217426,-0.00
 083990,0.00113452,0.00231954,0.47417957,-0.04917297,-0.31780904,-0.484
 53698,0.05273106,0.30763181,0.00183953,0.00081755,0.00042875,-0.000037
 66,-0.00017320,0.00012973,0.00000005,0.00011271,0.00014358,0.00000426,
 -0.00000487,0.00003087,-0.00002016,0.00004582,0.00001116,0.00000576,0.
 00000329,0.00000399,0.00000822,-0.00000469,0.00000547,0.00002917,-0.00
 006584,0.00000080,0.00000222,0.00005903,-0.00005360,-0.00004287,0.0000
 3746,0.00002670,0.00000245,0.00002416,0.00005686,0.00001375,0.00000702
 ,0.00000994,-0.00000757,0.00002122,-0.00000886,-0.00027305,0.00010032,
 -0.00018126,0.00020354,-0.00024841,-0.00011440,-0.00000234,0.00002501,
 0.00002259,-0.00000321,-0.00000187,0.00000350,-0.00000510,0.00000135,0
 .00000040,-0.00000947,0.00000457,0.00000959,0.00003495,-0.00002896,-0.
 00003881,-0.00018437,-0.00014742,-0.00003752,0.50815424,0.00073158,0.0
 0144349,0.00033769,0.00012727,0.00000388,0.00011021,-0.00015144,-0.000
 01333,0.00007314,0.00003054,-0.00003270,0.00002959,-0.00000273,-0.0000
 0579,0.00002449,0.00000459,0.00001035,0.00001124,0.00001331,-0.0000064
 7,-0.00000695,0.00004487,-0.00028365,-0.00019066,-0.00021227,0.0002490
 5,-0.00011753,-0.00000161,0.00000676,0.00002501,0.00004715,-0.00006112
 ,-0.00000739,0.00000296,0.00000847,0.00000251,-0.00000378,-0.00000091,
 0.00001102,0.00001973,0.00000306,0.00004096,-0.00000089,0.00006617,-0.
 00001143,-0.00001632,0.00002799,0.00003236,-0.00000250,-0.00000456,0.0
 0000092,-0.00000441,-0.00000118,-0.00000158,-0.00000625,-0.00000848,-0
 .00000198,0.00002551,-0.00001339,-0.00002349,-0.00013594,-0.00010167,-
 0.00003411,-0.00981320,0.51336628,0.00091183,0.00078587,0.00136529,-0.
 00003575,-0.00031165,0.00001531,-0.00035568,0.00001161,0.00000016,-0.0
 0001118,0.00000186,0.00003966,-0.00001386,0.00005047,-0.00002555,0.000
 00795,0.00000448,0.00000209,-0.00001120,-0.00001172,0.00000001,0.00001
 618,0.00001977,0.00004251,0.00006210,-0.00001347,-0.00001800,-0.000005
 04,0.00001956,0.00005793,0.00004494,-0.00004050,-0.00002920,0.00000414
 ,0.00000619,0.00000557,-0.00001143,-0.00001005,-0.00000142,-0.00001910
 ,0.00003258,-0.00000557,0.00003721,0.00001262,-0.00003758,-0.00001649,
 0.00001336,0.00002326,-0.00000194,-0.00000295,0.00000009,-0.00000303,-
 0.00000235,-0.00000239,0.00000514,0.00000069,-0.00000450,0.00002042,-0
 .00000677,-0.00002115,-0.00009386,-0.00006858,-0.00001069,-0.00892074,
 -0.00729506,0.51485969,0.00032231,0.00014953,0.00009449,-0.00001863,-0
 .00006608,0.00002207,-0.00003315,0.00001281,0.00002146,0.00000425,-0.0
 0000450,0.00000684,-0.00000051,-0.00000555,-0.00000172,0.,0.00000019,0
 .00000037,0.00000401,-0.00000297,0.00000031,0.00001122,-0.00001466,-0.
 00000154,-0.00000554,0.00002148,-0.00000483,-0.00004331,0.00000509,0.0
 0000372,0.00006159,0.00009739,-0.00013525,0.00001499,0.00000832,0.0000
 0950,-0.00000694,-0.00000295,-0.00000143,-0.00005782,0.00000732,-0.000
 05093,0.00005141,-0.00004971,0.00000912,-0.00000041,0.00000695,0.00000
 608,-0.00000113,-0.00000077,0.00000091,-0.00000166,0.00000005,-0.00000
 008,-0.00000152,0.00000145,0.00000183,0.00000696,-0.00000586,-0.000007
 71,-0.00004635,-0.00004194,-0.00001276,-0.26143705,0.09547056,0.039087
 64,0.28487730,0.00060110,0.00039427,0.00022023,0.00000364,-0.00008510,
 0.00004388,-0.00010177,0.00001255,0.00003575,-0.00000363,-0.00000191,0
 .00000269,-0.00000288,-0.00000601,-0.00000773,0.00000184,0.00000377,0.
 00000123,0.00000274,-0.00000608,-0.00000148,0.00001409,-0.00003577,-0.
 00000765,-0.00001986,0.00003923,-0.00001117,-0.00007088,-0.00001467,0.
 00003537,0.00028026,-0.00052452,-0.00021123,0.00002502,0.00001300,0.00
 001501,-0.00000134,0.00000373,-0.00000369,-0.00011517,0.00004920,-0.00
 009772,0.00009741,-0.00010124,-0.00003103,-0.00000217,0.00001247,0.000
 01166,-0.00000197,-0.00000155,0.00000143,-0.00000296,-0.00000016,-0.00
 000033,-0.00000127,0.00000295,0.00000273,0.00001188,-0.00000978,-0.000
 01327,-0.00007961,-0.00007208,-0.00002178,0.09586425,-0.07766918,-0.01
 792543,-0.09905838,0.08305456,0.00049075,0.00027297,0.00021517,-0.0000
 3492,-0.00010991,0.00002666,-0.00005613,0.00000866,0.00003040,0.000004
 99,-0.00000124,0.00000276,0.00000694,-0.00002080,0.00001049,-0.0000019
 4,0.00000003,-0.00000014,0.00000976,-0.00000525,-0.00000213,0.00001961
 ,-0.00003686,-0.00000265,-0.00001756,0.00004242,-0.00002681,-0.0000635
 1,-0.00001916,0.00001035,0.00004995,-0.00018917,-0.00030919,0.00002270
 ,0.00001974,0.00000616,-0.00000351,0.00001788,0.00000297,-0.00008090,0
 .00003095,-0.00005729,0.00006702,-0.00004677,-0.00002217,-0.00000182,0
 .00001035,0.00000943,-0.00000162,-0.00000130,0.00000115,-0.00000217,0.
 00000009,-0.00000007,-0.00000177,0.00000090,0.00000229,0.00000922,-0.0
 0000805,-0.00001087,-0.00006397,-0.00005665,-0.00001770,0.03935055,-0.
 01799809,-0.04309330,-0.03848649,0.02014513,0.04652319,0.00049842,0.00
 051597,0.00018932,-0.00000294,-0.00009870,0.00003837,-0.00008084,0.000
 02225,0.00003772,-0.00002925,-0.00004435,0.00002377,0.00020474,0.00003
 323,0.00008051,0.00001235,0.00001892,0.00001125,0.00000255,-0.00000325
 ,-0.00000268,0.00001916,-0.00011642,-0.00009128,-0.00007650,0.00011194
 ,-0.00002935,-0.00000390,0.00000059,0.00000920,-0.00000198,-0.00000859
 ,-0.00002007,0.00000377,0.00000124,0.00000161,-0.00000581,0.00000309,-
 0.00000222,-0.00003542,0.00002243,-0.00001479,0.00003758,-0.00003468,-
 0.00000781,-0.00000424,0.00001584,0.00001543,-0.00000202,-0.00000200,0
 .00000139,-0.00000310,-0.00000025,-0.00000047,-0.00000440,-0.00000139,
 0.00000118,0.00001342,-0.00000919,-0.00001380,-0.00008274,-0.00007228,
 -0.00002372,-0.03674429,0.00752707,-0.00395358,0.00124379,0.02416032,-
 0.00872187,0.04106103,0.00010900,0.00017930,0.00002955,0.00000573,-0.0
 0001261,0.00001572,-0.00004209,-0.00000824,0.00001363,-0.00000054,-0.0
 0001717,-0.00001311,-0.00006939,0.00002854,-0.00001905,0.00000274,0.00
 000470,0.00000303,-0.00000278,-0.00000427,-0.00000087,-0.00000957,-0.0
 0002660,-0.00002217,-0.00002108,0.00003109,0.00000557,-0.00000019,0.00
 000427,0.00000287,-0.00001000,0.00000815,0.00000630,-0.00000135,-0.000
 00090,-0.00000056,-0.00000124,0.00000632,-0.00000003,-0.00000754,0.000
 01126,0.00000309,0.00001364,-0.00000692,-0.00000597,-0.00000226,0.0000
 0575,0.00000580,-0.00000075,-0.00000095,0.00000035,-0.00000114,-0.0000
 0026,-0.00000031,-0.00000071,-0.00000055,0.00000005,0.00000508,-0.0000
 0198,-0.00000416,-0.00002968,-0.00002637,-0.00000929,0.00716108,-0.279
 11257,0.08503706,-0.00114209,-0.00786785,0.00305039,-0.00349145,0.3019
 9861,0.00042601,0.00046793,0.00020380,-0.00001050,-0.00008000,0.000037
 73,-0.00009515,-0.00000504,0.00003056,-0.00001212,-0.00002493,0.000008
 55,0.00008970,0.00006374,-0.00009277,0.00000973,0.00000860,0.00000214,
 0.00001736,-0.00000519,0.00000263,0.00001936,-0.00008591,-0.00004660,-
 0.00003979,0.00007573,-0.00003954,0.00000416,-0.00000157,-0.00000282,-
 0.00002421,0.00001749,0.00001578,-0.00000018,-0.00000205,-0.00000137,-
 0.00000444,0.00001244,-0.00000368,-0.00003202,0.00002658,0.00000434,0.
 00003735,-0.00002593,-0.00002471,-0.00000430,0.00001304,0.00001298,-0.
 00000181,-0.00000185,0.00000105,-0.00000261,-0.00000031,-0.00000042,-0
 .00000163,-0.00000024,0.00000106,0.00001022,-0.00000755,-0.00001096,-0
 .00007057,-0.00006240,-0.00002080,-0.00383676,0.08542716,-0.06636322,0
 .00017768,-0.00496854,0.00014278,0.00546703,-0.08832706,0.07072626,0.0
 0057703,0.00045870,0.00046148,-0.00003329,-0.00016476,0.00003253,-0.00
 011804,0.00002497,0.00004567,0.00000897,-0.00000186,0.00001044,0.00000
 708,-0.00001696,0.00000499,-0.00000107,0.00000199,0.00000338,0.0000033
 2,-0.00000566,-0.00000156,0.00002240,-0.00005328,-0.00002174,-0.000035
 88,0.00006249,-0.00002670,-0.00000924,-0.00000323,-0.00000297,-0.00000
 514,-0.00000509,-0.00000503,0.00000445,0.00000173,0.00000076,-0.000006
 53,0.00000850,-0.00000021,-0.00003131,0.00001892,-0.00000085,0.0000347
 5,-0.00002639,-0.00001600,-0.00000531,0.00001489,0.00001590,-0.0000020
 9,-0.00000199,0.00000130,-0.00000314,-0.00000064,-0.00000080,-0.000003
 02,-0.00000102,0.00000032,0.00001333,-0.00000838,-0.00001448,-0.000080
 32,-0.00006995,-0.00002063,-0.04904914,-0.00257243,0.05664615,-0.00334
 159,-0.00141360,0.02511441,-0.00120498,0.00054345,-0.00101856,0.053482
 15,0.00038007,0.00040090,0.00033010,0.00000941,-0.00006730,0.00004471,
 -0.00015341,-0.00001481,0.00001770,-0.00000357,-0.00000695,-0.00000419
 ,-0.00000546,-0.00000042,0.00000299,0.00000230,0.00000274,-0.00000048,
 0.00000657,-0.00000698,0.00000049,0.00000645,-0.00002001,0.00000967,-0
 .00000469,0.00001950,-0.00001306,0.00000830,0.00000899,0.00000948,-0.0
 0002094,0.00001461,0.00001129,-0.00000169,-0.00000377,0.00000172,-0.00
 000160,0.00000615,-0.00000306,-0.00004299,0.00003136,-0.00002022,0.000
 04666,-0.00004682,-0.00002220,-0.00000463,0.00000973,0.00001131,-0.000
 00161,-0.00000164,0.00000075,-0.00000253,-0.00000091,-0.00000090,0.000
 00142,0.00000223,-0.00000008,0.00000887,-0.00000521,-0.00000924,-0.000
 05903,-0.00005400,-0.00001578,-0.00267008,-0.03624729,0.00637096,0.001
 40161,-0.00095396,-0.01032899,-0.00521212,0.00137109,0.02603047,0.0046
 6942,0.03958603,0.00008243,0.00007490,0.00012133,-0.00001895,-0.000056
 66,-0.00000181,-0.00005622,-0.00000675,-0.00000289,0.00000492,0.000002
 66,0.00000463,0.00000052,-0.00000491,-0.00000033,-0.00000058,-0.000000
 47,0.00000060,-0.00000050,-0.00000304,-0.00000095,0.00001299,-0.000011
 07,0.00000282,-0.00000317,0.00001120,-0.00000383,0.00000291,0.00000388
 ,0.00000272,-0.00000362,-0.00000270,-0.00000078,-0.00000056,-0.0000000
 9,-0.00000011,-0.00000277,0.00000141,-0.00000059,-0.00000482,0.0000120
 5,0.00000706,0.00000622,0.00000035,-0.00000061,-0.00000196,0.00000281,
 0.00000392,-0.00000053,-0.00000069,0.00000012,-0.00000083,-0.00000051,
 -0.00000047,0.00000080,0.00000028,-0.00000062,0.00000364,-0.00000048,-
 0.00000294,-0.00001766,-0.00001553,-0.00000488,0.05621292,0.00606500,-
 0.29723676,-0.00041502,0.00079298,-0.00215345,0.00162998,-0.00119565,-
 0.00659250,-0.05620467,-0.00326743,0.32075384,-0.00099031,-0.00046075,
 -0.00071761,0.00031784,0.00033696,0.00005388,-0.00013107,0.00011117,0.
 00003325,-0.00013237,-0.00003356,-0.00002345,-0.00020381,0.00043581,-0
 .00015218,0.00005907,0.00002394,0.00003437,-0.00021228,0.00004113,0.00
 005588,-0.00049320,0.00020608,-0.00049849,0.00030949,-0.00005387,0.000
 32043,0.00010750,0.00008517,0.00008478,-0.00011028,0.00028144,0.000178
 11,-0.00006097,-0.00002447,-0.00001115,0.00003532,-0.00013241,0.000038
 57,0.00046583,-0.00017005,0.00018087,-0.00035529,0.00063410,0.00030805
 ,-0.00003820,0.00008892,0.00010263,-0.00000605,-0.00000995,0.00000409,
 -0.00001261,-0.00000337,-0.00000667,-0.00005317,-0.00004495,-0.0000108
 0,0.00011356,-0.00004672,-0.00010848,-0.00047586,-0.00033751,-0.000060
 20,-0.16510464,-0.07899846,-0.07224936,-0.02471778,-0.02060788,-0.0181
 7177,-0.00381392,-0.00446193,0.00159202,0.00213875,0.00395407,-0.00301
 146,0.75032357,-0.00048235,-0.00061905,-0.00055308,0.00001641,-0.00022
 333,0.00009558,0.00037918,0.00019517,0.00001450,0.00007394,0.00019905,
 0.00009378,0.00014853,-0.00016588,0.00010315,-0.00004277,-0.00005383,-
 0.00002248,-0.00005576,0.00003735,0.00001083,-0.00001760,0.00044859,0.
 00021119,0.00046032,-0.00044233,0.00027510,-0.00004704,-0.00013512,-0.
 00001936,0.00050645,-0.00029118,-0.00015446,0.00004245,0.00005501,0.00
 004542,-0.00001107,-0.00020201,0.00006421,0.00008638,-0.00048648,-0.00
 049511,0.00009208,0.00018379,0.00024833,-0.00002822,0.00008118,0.00008
 719,-0.00000478,-0.00000685,0.00000483,-0.00001047,-0.00000118,-0.0000
 0469,-0.00006149,-0.00004900,-0.00000879,0.00010629,-0.00004477,-0.000
 09982,-0.00038472,-0.00028984,-0.00004439,-0.07891629,-0.12984278,-0.0
 5770532,0.00286815,0.00631886,0.00794871,-0.02486607,-0.01921963,-0.01
 959668,0.00086287,-0.00378777,-0.00382555,0.51559558,0.51942339,-0.000
 54403,-0.00037774,-0.00094177,0.00029064,0.00059704,0.00005649,0.00059
 240,0.00014989,0.00003601,-0.00005451,-0.00002426,-0.00007244,-0.00011
 052,0.00024496,-0.00015897,0.00003705,0.00001333,0.00001292,-0.0001026
 3,0.00004039,0.00004348,-0.00045571,0.00014188,-0.00043473,0.00013530,
 0.00006775,0.00021473,-0.00003598,-0.00004608,-0.00005452,0.00023987,-
 0.00013781,-0.00023796,0.00001478,0.00003276,0.00000962,0.00002425,-0.
 00010682,0.00005536,0.00016329,-0.00044388,-0.00040863,0.00006105,0.00
 017049,0.00022114,-0.00002001,0.00007266,0.00007331,-0.00000401,-0.000
 00560,0.00000425,-0.00000805,0.00000022,-0.00000297,-0.00006091,-0.000
 05173,-0.00000681,0.00008247,-0.00004037,-0.00008299,-0.00030443,-0.00
 021610,-0.00005325,-0.07208274,-0.05760089,-0.11902183,-0.00081391,0.0
 0472454,-0.00059399,0.00809003,0.00044168,0.00373053,-0.02671251,-0.02
 052837,-0.01736575,0.47220700,0.37793661,0.45049835,-0.01056969,-0.005
 39540,-0.00719380,0.00068489,-0.00091839,0.00102206,-0.00336254,-0.000
 20491,0.00042964,-0.00003505,-0.00002086,-0.00000338,-0.00004018,-0.00
 013189,0.00000291,0.00000939,0.00002779,-0.00001714,0.00009395,-0.0000
 9862,-0.00004498,-0.00009562,-0.00009331,-0.00028682,-0.00041069,0.001
 04070,-0.00097404,-0.00009953,-0.00007603,0.00010336,0.00009705,-0.000
 01007,-0.00004894,0.00002606,0.00001946,-0.00002371,-0.00007528,-0.000
 00292,0.00004818,0.00034835,0.00018018,0.00065456,0.00047908,0.0005287
 0,-0.00030194,-0.00020359,0.00041763,0.00045925,-0.00004341,-0.0000525
 9,0.00002481,-0.00006893,-0.00001607,-0.00002539,-0.00015605,-0.000131
 41,-0.00003633,0.00037432,-0.00022012,-0.00038157,-0.00298439,-0.00241
 387,-0.00064841,0.00262277,-0.01212289,-0.01114147,0.00311554,0.000420
 83,0.00056404,-0.00100047,0.00145506,-0.00269596,-0.00236211,-0.002310
 81,0.00178601,-0.55695912,-0.41630999,-0.38062820,0.57061525,-0.005091
 72,-0.00871154,-0.00587438,-0.00108797,-0.00306625,0.00050989,-0.00000
 474,0.00094807,0.00086014,-0.00010945,-0.00002727,0.00006702,0.0000223
 7,0.00012526,-0.00004017,0.00001505,0.00000600,-0.00001647,-0.00006947
 ,-0.00001921,0.00007136,0.00024887,0.00035805,0.00075140,0.00077218,0.
 00010068,-0.00000578,-0.00000802,-0.00005294,-0.00004304,-0.00017333,-
 0.00000833,-0.00000419,0.00002887,-0.00000359,-0.00002213,-0.00009035,
 0.00015007,-0.00007553,-0.00022047,-0.00015446,-0.00042797,0.00095083,
 -0.00088432,-0.00091128,-0.00004511,0.00027896,0.00026893,-0.00003475,
 -0.00001880,0.00003535,-0.00005358,0.00000967,-0.00000063,-0.00016482,
 -0.00004868,0.00004614,0.00021395,-0.00028189,-0.00032070,-0.00246938,
 -0.00204668,-0.00053347,-0.01220999,0.00821954,-0.00897321,0.00034455,
 -0.00255474,-0.00272599,0.00152785,0.00265780,0.00105207,-0.00232268,-
 0.00023549,0.00142399,-0.41640847,-0.37108135,-0.30505453,0.43643979,0
 .37634143,-0.00610919,-0.00507890,-0.01009626,0.00114521,0.00090379,0.
 00104226,0.00080054,0.00086672,0.00100993,0.00009821,-0.00008961,-0.00
 004426,0.00000788,-0.00010722,0.00002346,-0.00000492,0.00001922,0.0000
 4302,0.00004695,0.00002790,-0.00000735,-0.00034912,-0.00021600,-0.0010
 4054,-0.00097844,0.00119659,-0.00084051,-0.00003862,0.00008399,-0.0000
 7946,-0.00010681,0.00002740,0.00000184,0.00001195,-0.00001258,0.000043
 21,0.00006097,0.00001172,-0.00000508,-0.00028328,-0.00031700,-0.000969
 69,0.00094329,-0.00118348,-0.00068348,-0.00006038,0.00034629,0.0002978
 4,-0.00003596,-0.00002515,0.00004025,-0.00005811,0.00001169,-0.0000001
 1,-0.00019768,-0.00005412,0.00005762,0.00017483,-0.00030697,-0.0003320
 5,-0.00256346,-0.00215948,-0.00063236,-0.01117271,-0.00890217,0.009459
 61,0.00048965,-0.00273160,-0.00069402,-0.00271515,0.00098315,-0.001720
 81,0.00170938,0.00137236,0.00247222,-0.38017229,-0.30460972,-0.3155195
 4,0.39935727,0.31994317,0.31817429\\-0.00000573,0.00000164,-0.00000179
 ,-0.00000134,-0.00000075,-0.00000484,0.00000343,0.00000102,0.00000162,
 0.00000177,0.00000195,0.00000513,0.00000005,0.00000125,0.00000281,0.00
 000167,0.00000168,0.00000421,0.00000138,-0.00000424,0.00000071,-0.0000
 0077,0.00000133,0.00000463,0.00000199,0.00000153,-0.00000210,-0.000009
 57,0.00000145,-0.00000649,0.00000017,-0.00000181,-0.00000222,-0.000000
 03,-0.00000061,-0.00000353,0.00000622,-0.00000478,0.00000062,-0.000000
 71,0.00000126,-0.00000129,0.00000343,0.00000067,-0.00000143,-0.0000030
 9,0.00000428,-0.00000603,-0.00000002,0.00000050,0.00000106,-0.00000073
 ,0.00000187,0.00000111,0.00000082,-0.00000073,0.00000256,-0.00000177,-
 0.00000211,-0.00000592,-0.00000243,0.00000835,0.00000715,0.00000694,-0
 .00000419,0.00000442,-0.00000046,-0.00000210,-0.00000089,0.00000073,-0
 .00000149,0.00000011,0.00000054,-0.00000330,-0.00000023,-0.00000362,0.
 00000074,0.00000060,0.00000115,-0.00000338,0.00000001\\\@
 The archive entry for this job was punched.


 THERE IS MUCH PLEASURE TO BE GAINED FROM USELESS KNOWLEDGE

                                       -- BERTRAND RUSSELL
 Job cpu time:       0 days  0 hours 24 minutes 42.6 seconds.
 Elapsed time:       0 days  0 hours  6 minutes 12.0 seconds.
 File lengths (MBytes):  RWF=    355 Int=      0 D2E=      0 Chk=     32 Scr=      1
 Normal termination of Gaussian 16 at Mon Nov  2 18:02:03 2020.
