 Entering Gaussian System, Link 0=g16
 Input=01-PbBr2_DMF_22478256.com
 Output=01-PbBr2_DMF_22478256.log
 Initial command:
 /cm/shared/uniol/software/gaussian/g16.c01/g16/l1.exe "/scratch/22478256_edba4025/Gau-4792.inp" -scrdir="/scratch/22478256_edba4025/"
 Entering Link 1 = /cm/shared/uniol/software/gaussian/g16.c01/g16/l1.exe PID=      4793.
  
 Copyright (c) 1988-2019, Gaussian, Inc.  All Rights Reserved.
  
 This is part of the Gaussian(R) 16 program.  It is based on
 the Gaussian(R) 09 system (copyright 2009, Gaussian, Inc.),
 the Gaussian(R) 03 system (copyright 2003, Gaussian, Inc.),
 the Gaussian(R) 98 system (copyright 1998, Gaussian, Inc.),
 the Gaussian(R) 94 system (copyright 1995, Gaussian, Inc.),
 the Gaussian 92(TM) system (copyright 1992, Gaussian, Inc.),
 the Gaussian 90(TM) system (copyright 1990, Gaussian, Inc.),
 the Gaussian 88(TM) system (copyright 1988, Gaussian, Inc.),
 the Gaussian 86(TM) system (copyright 1986, Carnegie Mellon
 University), and the Gaussian 82(TM) system (copyright 1983,
 Carnegie Mellon University). Gaussian is a federally registered
 trademark of Gaussian, Inc.
  
 This software contains proprietary and confidential information,
 including trade secrets, belonging to Gaussian, Inc.
  
 This software is provided under written license and may be
 used, copied, transmitted, or stored only in accord with that
 written license.
  
 The following legend is applicable only to US Government
 contracts under FAR:
  
                    RESTRICTED RIGHTS LEGEND
  
 Use, reproduction and disclosure by the US Government is
 subject to restrictions as set forth in subparagraphs (a)
 and (c) of the Commercial Computer Software - Restricted
 Rights clause in FAR 52.227-19.
  
 Gaussian, Inc.
 340 Quinnipiac St., Bldg. 40, Wallingford CT 06492
  
  
 ---------------------------------------------------------------
 Warning -- This program may not be used in any manner that
 competes with the business of Gaussian, Inc. or will provide
 assistance to any competitor of Gaussian, Inc.  The licensee
 of this program is prohibited from giving any competitor of
 Gaussian, Inc. access to this program.  By using this program,
 the user acknowledges that Gaussian, Inc. is engaged in the
 business of creating and licensing software in the field of
 computational chemistry and represents and warrants to the
 licensee that it is not a competitor of Gaussian, Inc. and that
 it will not use this program in any manner prohibited above.
 ---------------------------------------------------------------
  

 Cite this work as:
 Gaussian 16, Revision C.01,
 M. J. Frisch, G. W. Trucks, H. B. Schlegel, G. E. Scuseria, 
 M. A. Robb, J. R. Cheeseman, G. Scalmani, V. Barone, 
 G. A. Petersson, H. Nakatsuji, X. Li, M. Caricato, A. V. Marenich, 
 J. Bloino, B. G. Janesko, R. Gomperts, B. Mennucci, H. P. Hratchian, 
 J. V. Ortiz, A. F. Izmaylov, J. L. Sonnenberg, D. Williams-Young, 
 F. Ding, F. Lipparini, F. Egidi, J. Goings, B. Peng, A. Petrone, 
 T. Henderson, D. Ranasinghe, V. G. Zakrzewski, J. Gao, N. Rega, 
 G. Zheng, W. Liang, M. Hada, M. Ehara, K. Toyota, R. Fukuda, 
 J. Hasegawa, M. Ishida, T. Nakajima, Y. Honda, O. Kitao, H. Nakai, 
 T. Vreven, K. Throssell, J. A. Montgomery, Jr., J. E. Peralta, 
 F. Ogliaro, M. J. Bearpark, J. J. Heyd, E. N. Brothers, K. N. Kudin, 
 V. N. Staroverov, T. A. Keith, R. Kobayashi, J. Normand, 
 K. Raghavachari, A. P. Rendell, J. C. Burant, S. S. Iyengar, 
 J. Tomasi, M. Cossi, J. M. Millam, M. Klene, C. Adamo, R. Cammi, 
 J. W. Ochterski, R. L. Martin, K. Morokuma, O. Farkas, 
 J. B. Foresman, and D. J. Fox, Gaussian, Inc., Wallingford CT, 2019.
 
 ******************************************
 Gaussian 16:  ES64L-G16RevC.01  3-Jul-2019
                15-Oct-2020 
 ******************************************
 %Chk=01-PbBr2_DMF
 %mem=16GB
 %NProcShared=4
 Will use up to    4 processors via shared memory.
 ----------------------------------------------------------------------
 # pbepbe/Gen pseudo=read Opt=(calcfc,cartesian) Freq EmpiricalDispersi
 on=GD3BJ SCRF=(Solvent=n,n-DiMethylFormamide)
 ----------------------------------------------------------------------
 1/10=4,18=10,26=3,38=1/1,3;
 2/12=2,17=6,18=5,29=2,40=1/2;
 3/5=7,11=2,16=1,17=8,25=1,30=1,70=2201,71=2,72=148,74=1009,124=41,140=1/1,2,3;
 4//1;
 5/5=2,38=5,53=148/2;
 8/6=4,10=90,11=11/1;
 11/6=1,8=1,9=11,15=111,16=1/1,2,10;
 10/6=1,13=1/2;
 6/7=2,8=2,9=2,10=2,28=1/1;
 7/7=1,10=1,25=1/1,2,3,16;
 1/10=4,18=10,26=3/3(2);
 2/29=1/2;
 99/12=1/99;
 2/29=1/2;
 3/5=7,6=1,11=2,16=1,17=8,25=1,30=1,70=2205,71=1,72=148,74=1009,82=7,124=41/1,2,3;
 4/5=5,16=3,69=1/1;
 5/5=2,38=5,53=148/2;
 7/7=1/1,2,3,16;
 1/18=10,26=3/3(-5);
 2/29=1/2;
 6/7=2,8=2,9=2,10=2,19=2,28=1/1;
 99/9=1,12=1/99;
 -------------
 PbBr2_DMF.log
 -------------
 Symbolic Z-matrix:
 Charge =  0 Multiplicity = 1
 Pb                    0.32815  -0.31717  -1.00652 
 Br                    2.20563  -0.66587  -3.18524 
 Br                    1.56584  -2.25088   0.84722 
 O                    -0.70956   1.91297  -2.14499 
 C                    -1.5937    2.68314  -1.72562 
 H                    -1.36607   3.73439  -1.46146 
 N                    -2.89087   2.3722   -1.54886 
 C                    -3.40402   1.04774  -1.86416 
 C                    -3.83654   3.34714  -1.02716 
 H                    -3.3159    4.28764  -0.81254 
 H                    -4.29406   2.9751   -0.09892 
 H                    -4.6355    3.53662  -1.7582 
 H                    -3.6983    0.51988  -0.94521 
 H                    -4.28246   1.13577  -2.51801 
 H                    -2.62254   0.47714  -2.37481 
 O                    -1.39396   0.46674   1.03688 
 C                    -2.17325   1.20915   1.65825 
 H                    -3.17757   0.85903   1.97129 
 N                    -1.93234   2.4829    2.0237 
 C                    -0.66975   3.13706   1.71391 
 C                    -2.9051    3.2436    2.79368 
 H                    -3.80372   2.637     2.95595 
 H                    -3.18513   4.16003   2.25413 
 H                    -2.48501   3.52701   3.76982 
 H                    -0.86344   4.11101   1.2429 
 H                    -0.08873   3.3049    2.63345 
 H                    -0.0932    2.50584   1.03152 
 O                     1.80443   1.43048  -0.03506 
 C                     2.53821   1.27335   0.97289 
 H                     2.68205   0.27753   1.42784 
 N                     3.19415   2.26537   1.58039 
 C                     3.10648   3.64147   1.10848 
 C                     4.02651   2.01098   2.74858 
 H                     4.00053   0.94372   2.99502 
 H                     3.65685   2.58752   3.60835 
 H                     5.06503   2.30808   2.54528 
 H                     2.67616   4.27941   1.89356 
 H                     4.10984   4.0154    0.86199 
 H                     2.47205   3.67287   0.21807 
 O                    -1.40469  -2.12664  -2.03435 
 C                    -2.61427  -2.35661  -1.83555 
 H                    -3.34765  -2.32648  -2.66518 
 N                    -3.17526  -2.66265  -0.65421 
 C                    -2.3777   -2.78118   0.55994 
 C                    -4.6159   -2.8259   -0.52543 
 H                    -5.09049  -2.71453  -1.50724 
 H                    -5.02608  -2.06487   0.15504 
 H                    -4.85266  -3.82064  -0.12215 
 H                    -2.47773  -1.87799   1.17914 
 H                    -2.71855  -3.65511   1.13054 
 H                    -1.32208  -2.90427   0.2952 
 

 GradGradGradGradGradGradGradGradGradGradGradGradGradGradGradGradGradGrad
 Berny optimization.
 Initialization pass.
 No Z-matrix variables, so optimization will use Cartesian coordinates.
 Trust Radius=3.00D-01 FncErr=1.00D-07 GrdErr=1.00D-06 EigMax=2.50D+02 EigMin=1.00D-04
 Number of steps in this run=    163 maximum allowed number of steps=    306.
 GradGradGradGradGradGradGradGradGradGradGradGradGradGradGradGradGradGrad

 Stoichiometry    C12H28Br2N4O4Pb
 Framework group  C1[X(C12H28Br2N4O4Pb)]
 Deg. of freedom   147
 Full point group                 C1      NOp   1
 Largest Abelian subgroup         C1      NOp   1
 Largest concise Abelian subgroup C1      NOp   1
                         Standard orientation:                         
 ---------------------------------------------------------------------
 Center     Atomic      Atomic             Coordinates (Angstroms)
 Number     Number       Type             X           Y           Z
 ---------------------------------------------------------------------
      1         82           0        0.299379   -0.690772   -0.293147
      2         35           0        1.965576   -2.252297   -2.076057
      3         35           0        1.590225   -1.523549    2.226310
      4          8           0       -0.716902    0.740258   -2.358529
      5          6           0       -1.522273    1.690007   -2.348859
      6          1           0       -1.220223    2.706608   -2.668249
      7          7           0       -2.813873    1.624433   -1.977315
      8          6           0       -3.418197    0.372064   -1.549182
      9          6           0       -3.661453    2.807042   -1.981147
     10          1           0       -3.077618    3.678139   -2.300511
     11          1           0       -4.056952    2.995488   -0.972467
     12          1           0       -4.508841    2.670090   -2.668052
     13          1           0       -3.659918    0.407839   -0.476803
     14          1           0       -4.343271    0.193802   -2.114326
     15          1           0       -2.712624   -0.443428   -1.734110
     16          8           0       -1.201657    1.162856    1.144427
     17          6           0       -1.886986    2.181612    1.336844
     18          1           0       -2.877606    2.125794    1.831610
     19          7           0       -1.551893    3.439302    0.990492
     20          6           0       -0.288612    3.735563    0.331416
     21          6           0       -2.416240    4.565513    1.310409
     22          1           0       -3.327412    4.204148    1.801319
     23          1           0       -2.694251    5.104698    0.393150
     24          1           0       -1.901207    5.265161    1.984856
     25          1           0       -0.471992    4.351267   -0.560338
     26          1           0        0.375929    4.293441    1.008516
     27          1           0        0.195421    2.799081    0.039496
     28          8           0        1.939101    1.172824   -0.418612
     29          6           0        2.746711    1.482942    0.492804
     30          1           0        2.878018    0.844664    1.384256
     31          7           0        3.501061    2.584833    0.478356
     32          6           0        3.443444    3.536345   -0.624069
     33          6           0        4.415421    2.883730    1.572345
     34          1           0        4.356467    2.093573    2.329067
     35          1           0        4.149524    3.844837    2.034756
     36          1           0        5.446686    2.946420    1.197263
     37          1           0        3.113963    4.517757   -0.254249
     38          1           0        4.439948    3.646281   -1.073743
     39          1           0        2.738295    3.168936   -1.375131
     40          8           0       -1.603551   -2.613699   -0.172501
     41          6           0       -2.802028   -2.606184    0.172590
     42          1           0       -3.600562   -2.935445   -0.520931
     43          7           0       -3.275723   -2.224366    1.369988
     44          6           0       -2.385230   -1.782561    2.435889
     45          6           0       -4.706688   -2.174864    1.631837
     46          1           0       -5.256473   -2.533542    0.753955
     47          1           0       -5.018762   -1.142252    1.848115
     48          1           0       -4.958447   -2.805331    2.496318
     49          1           0       -2.386665   -0.685610    2.512449
     50          1           0       -2.720293   -2.215808    3.387491
     51          1           0       -1.363400   -2.113295    2.221294
 ---------------------------------------------------------------------
 Rotational constants (GHZ):           0.1311637           0.1202706           0.0952665
 General basis read from cards:  (5D, 7F)
 ======================================================================================================
                                       Pseudopotential Parameters
 ======================================================================================================
  Center     Atomic      Valence      Angular      Power
  Number     Number     Electrons     Momentum     of R      Exponent        Coefficient   SO-Coeffient
 ======================================================================================================
    1         82            4
                                      G and up 
                                                     0      376.5803786       -0.17896050    0.00000000
                                                     1       86.4840014      -54.39723370    0.00000000
                                                     2       26.6784276     -199.70617590    0.00000000
                                                     2        9.4261986      -79.12239410    0.00000000
                                                     2        2.7101719      -24.98690200    0.00000000
                                                     2        0.8792031       -4.43979390    0.00000000
                                      S - G
                                                     0      132.4248796        2.81153860    0.00000000
                                                     1       47.2376044       65.03672050    0.00000000
                                                     2       17.6312727      212.78685450    0.00000000
                                                     2        5.4744712       72.10531750    0.00000000
                                                     2        1.2634856       33.01409400    0.00000000
                                                     2        0.7651447       -5.77084610    0.00000000
                                      P - G
                                                     0       67.8966454        4.87549110    0.00000000
                                                     1       24.9898225       63.91481020    0.00000000
                                                     2       10.7052939      148.10643580    0.00000000
                                                     2        3.2792568       47.31063010    0.00000000
                                                     2        0.8452522       21.03067020    0.00000000
                                                     2        0.6416245       -7.09307720    0.00000000
                                      D - G
                                                     0       68.8336005        3.21613880    0.00000000
                                                     1       24.2815874       55.73860860    0.00000000
                                                     2        9.4532762      121.41683510    0.00000000
                                                     2        2.4788185       19.34560640    0.00000000
                                                     2        2.4789161       15.36751680    0.00000000
                                                     2        0.5551738        6.12987240    0.00000000
                                      F - G
                                                     0      128.1021322        4.13536820    0.00000000
                                                     1       54.8029154       67.51284460    0.00000000
                                                     2       24.5529308      258.73731070    0.00000000
                                                     2        8.1144792      113.24782640    0.00000000
                                                     2        1.6931290       34.16802010    0.00000000
                                                     2        0.7670500       -6.55319560    0.00000000
    2         35            7
                                      F and up 
                                                     1      213.6143969      -28.00000000    0.00000000
                                                     2       41.0585380     -134.92688520    0.00000000
                                                     2        8.7086530      -41.92719130    0.00000000
                                                     2        2.6074661       -5.93364200    0.00000000
                                      S - F
                                                     0       54.1980682        3.00000000    0.00000000
                                                     1       32.9053558       27.34306420    0.00000000
                                                     2       13.6744890      118.80288470    0.00000000
                                                     2        3.0341152       43.43548760    0.00000000
                                      P - F
                                                     0       54.2563340        5.00000000    0.00000000
                                                     1       26.0095593       25.05042520    0.00000000
                                                     2       28.2012995       92.61574630    0.00000000
                                                     2        9.4341061       95.82490160    0.00000000
                                                     2        2.5321764       26.26849830    0.00000000
                                      D - F
                                                     0       87.6328721        3.00000000    0.00000000
                                                     1       61.7373377       22.55335570    0.00000000
                                                     2       32.4385104      178.12419880    0.00000000
                                                     2        8.7537199       76.99241620    0.00000000
                                                     2        1.6633189        9.48182700    0.00000000
    3         35            7
                                      F and up 
                                                     1      213.6143969      -28.00000000    0.00000000
                                                     2       41.0585380     -134.92688520    0.00000000
                                                     2        8.7086530      -41.92719130    0.00000000
                                                     2        2.6074661       -5.93364200    0.00000000
                                      S - F
                                                     0       54.1980682        3.00000000    0.00000000
                                                     1       32.9053558       27.34306420    0.00000000
                                                     2       13.6744890      118.80288470    0.00000000
                                                     2        3.0341152       43.43548760    0.00000000
                                      P - F
                                                     0       54.2563340        5.00000000    0.00000000
                                                     1       26.0095593       25.05042520    0.00000000
                                                     2       28.2012995       92.61574630    0.00000000
                                                     2        9.4341061       95.82490160    0.00000000
                                                     2        2.5321764       26.26849830    0.00000000
                                      D - F
                                                     0       87.6328721        3.00000000    0.00000000
                                                     1       61.7373377       22.55335570    0.00000000
                                                     2       32.4385104      178.12419880    0.00000000
                                                     2        8.7537199       76.99241620    0.00000000
                                                     2        1.6633189        9.48182700    0.00000000
    4          8
                                   No pseudopotential on this center.
    5          6
                                   No pseudopotential on this center.
    6          1
                                   No pseudopotential on this center.
    7          7
                                   No pseudopotential on this center.
    8          6
                                   No pseudopotential on this center.
    9          6
                                   No pseudopotential on this center.
   10          1
                                   No pseudopotential on this center.
   11          1
                                   No pseudopotential on this center.
   12          1
                                   No pseudopotential on this center.
   13          1
                                   No pseudopotential on this center.
   14          1
                                   No pseudopotential on this center.
   15          1
                                   No pseudopotential on this center.
   16          8
                                   No pseudopotential on this center.
   17          6
                                   No pseudopotential on this center.
   18          1
                                   No pseudopotential on this center.
   19          7
                                   No pseudopotential on this center.
   20          6
                                   No pseudopotential on this center.
   21          6
                                   No pseudopotential on this center.
   22          1
                                   No pseudopotential on this center.
   23          1
                                   No pseudopotential on this center.
   24          1
                                   No pseudopotential on this center.
   25          1
                                   No pseudopotential on this center.
   26          1
                                   No pseudopotential on this center.
   27          1
                                   No pseudopotential on this center.
   28          8
                                   No pseudopotential on this center.
   29          6
                                   No pseudopotential on this center.
   30          1
                                   No pseudopotential on this center.
   31          7
                                   No pseudopotential on this center.
   32          6
                                   No pseudopotential on this center.
   33          6
                                   No pseudopotential on this center.
   34          1
                                   No pseudopotential on this center.
   35          1
                                   No pseudopotential on this center.
   36          1
                                   No pseudopotential on this center.
   37          1
                                   No pseudopotential on this center.
   38          1
                                   No pseudopotential on this center.
   39          1
                                   No pseudopotential on this center.
   40          8
                                   No pseudopotential on this center.
   41          6
                                   No pseudopotential on this center.
   42          1
                                   No pseudopotential on this center.
   43          7
                                   No pseudopotential on this center.
   44          6
                                   No pseudopotential on this center.
   45          6
                                   No pseudopotential on this center.
   46          1
                                   No pseudopotential on this center.
   47          1
                                   No pseudopotential on this center.
   48          1
                                   No pseudopotential on this center.
   49          1
                                   No pseudopotential on this center.
   50          1
                                   No pseudopotential on this center.
   51          1
                                   No pseudopotential on this center.
 ======================================================================================================
 There are   464 symmetry adapted cartesian basis functions of A   symmetry.
 There are   444 symmetry adapted basis functions of A   symmetry.
   444 basis functions,   892 primitive gaussians,   464 cartesian basis functions
    89 alpha electrons       89 beta electrons
       nuclear repulsion energy      1978.6579060224 Hartrees.
 NAtoms=   51 NActive=   51 NUniq=   51 SFac= 1.00D+00 NAtFMM=   60 NAOKFM=F Big=F
 Integral buffers will be    131072 words long.
 Raffenetti 2 integral format.
 Two-electron integral symmetry is turned on.
 Nuclear repulsion after empirical dispersion term =     1978.5954104800 Hartrees.
 Force inversion solution in PCM.
 ------------------------------------------------------------------------------
 Polarizable Continuum Model (PCM)
 =================================
 Model                : PCM.
 Atomic radii         : UFF (Universal Force Field).
 Polarization charges : Total charges.
 Charge compensation  : None.
 Solution method      : Matrix inversion.
 Cavity type          : Scaled VdW (van der Waals Surface) (Alpha=1.100).
 Cavity algorithm     : GePol (No added spheres)
                        Default sphere list used, NSphG=   51.
                        Lebedev-Laikov grids with approx.  5.0 points / Ang**2.
                        Smoothing algorithm: York/Karplus (Gamma=1.0000).
                        Polarization charges: spherical gaussians, with
                                              point-specific exponents (IZeta= 3).
                        Self-potential: point-specific (ISelfS= 7).
                        Self-field    : sphere-specific E.n sum rule (ISelfD= 2).
 1st derivatives      : Analytical E(r).r(x)/FMM algorithm (CHGder, D1EAlg=3).
                        Cavity 1st derivative terms included.
 2nd derivatives      : Analytical E(r).r(xy)/FMM algorithm (CHGder, D2EAlg=3).
                        Cavity 2nd derivative terms included.
 Solvent              : n,n-DiMethylFormamide, Eps=  37.219000 Eps(inf)=   2.046330
 ------------------------------------------------------------------------------
 One-electron integrals computed using PRISM.
   1 Symmetry operations used in ECPInt.
 ECPInt:  NShTT=   23436 NPrTT=  156951 LenC2=   20719 LenP2D=   74590.
 LDataN:  DoStor=T MaxTD1= 6 Len=  172
 NBasis=   444 RedAO= T EigKep=  5.44D-03  NBF=   444
 NBsUse=   444 1.00D-06 EigRej= -1.00D+00 NBFU=   444
 Defaulting to unpruned grid for atomic number  82.
 ExpMin= 5.98D-02 ExpMax= 1.17D+04 ExpMxC= 4.01D+02 IAcc=3 IRadAn=         5 AccDes= 0.00D+00
 Harris functional with IExCor= 1009 and IRadAn=       5 diagonalized for initial guess.
 HarFok:  IExCor= 1009 AccDes= 0.00D+00 IRadAn=         5 IDoV= 1 UseB2=F ITyADJ=14
 ICtDFT=  3500011 ScaDFX=  1.000000  1.000000  1.000000  1.000000
 Defaulting to unpruned grid for atomic number  82.
 FoFCou: FMM=F IPFlag=           0 FMFlag=      100000 FMFlg1=           0
         NFxFlg=           0 DoJE=T BraDBF=F KetDBF=T FulRan=T
         wScrn=  0.000000 ICntrl=       500 IOpCl=  0 I1Cent=   200000004 NGrid=           0
         NMat0=    1 NMatS0=      1 NMatT0=    0 NMatD0=    1 NMtDS0=    0 NMtDT0=    0
 Petite list used in FoFCou.
 Requested convergence on RMS density matrix=1.00D-08 within 128 cycles.
 Requested convergence on MAX density matrix=1.00D-06.
 Requested convergence on             energy=1.00D-06.
 No special actions if energy rises.
 Defaulting to unpruned grid for atomic number  82.
 Defaulting to unpruned grid for atomic number  82.
 Defaulting to unpruned grid for atomic number  82.
 Defaulting to unpruned grid for atomic number  82.
 Inv3:  Mode=1 IEnd=    48360675.
 Iteration    1 A*A^-1 deviation from unit magnitude is 3.33D-15 for    750.
 Iteration    1 A*A^-1 deviation from orthogonality  is 2.78D-15 for   3285   1313.
 Iteration    1 A^-1*A deviation from unit magnitude is 3.33D-15 for    281.
 Iteration    1 A^-1*A deviation from orthogonality  is 2.34D-13 for   2897   2870.
 Error on total polarization charges =  0.01724
 SCF Done:  E(RPBE-PBE) =  -1022.97145961     A.U. after   14 cycles
            NFock= 14  Conv=0.75D-08     -V/T= 2.0269
 DoSCS=F DFT=T ScalE2(SS,OS)=  1.000000  1.000000
 Range of M.O.s used for correlation:     1   444
 NBasis=   444 NAE=    89 NBE=    89 NFC=     0 NFV=     0
 NROrb=    444 NOA=    89 NOB=    89 NVA=   355 NVB=   355
   1 Symmetry operations used in ECPInt.
 ECPInt:  NShTT=   23436 NPrTT=  156951 LenC2=   20719 LenP2D=   74590.
 LDataN:  DoStor=T MaxTD1= 7 Len=  274
 Symmetrizing basis deriv contribution to polar:
 IMax=3 JMax=2 DiffMx= 0.00D+00
 G2DrvN: will do    52 centers at a time, making    1 passes.
 Calling FoFCou, ICntrl=  3507 FMM=F I1Cent=   0 AccDes= 0.00D+00.
 Defaulting to unpruned grid for atomic number  82.
 Defaulting to unpruned grid for atomic number  82.
 Defaulting to unpruned grid for atomic number  82.
 Defaulting to unpruned grid for atomic number  82.
 NEqPCM:  Using equilibrium solvation (IEInf=0, Eps=  37.2190, EpsInf=   2.0463)
 G2PCM: DoFxE=T DoFxN=T DoGrad=T DoDP/DQ/DG/TGxP=FFFF NFrqRd=   0 IEInf=0 SqF1=F DoCFld=F IF1Alg=4.
 End of G2Drv F.D. properties file   721 does not exist.
 End of G2Drv F.D. properties file   722 does not exist.
 End of G2Drv F.D. properties file   788 does not exist.
          IDoAtm=11111111111111111111111111111111111111111111111111
          IDoAtm=1
 NEqPCM:  Using equilibrium solvation (IEInf=0, Eps=  37.2190, EpsInf=   2.0463)
          Differentiating once with respect to nuclear coordinates.
 Defaulting to unpruned grid for atomic number  82.
 CalDSu exits because no D1Ps are significant.
 Defaulting to unpruned grid for atomic number  82.
 Defaulting to unpruned grid for atomic number  82.
 Defaulting to unpruned grid for atomic number  82.
 Defaulting to unpruned grid for atomic number  82.
          There are   156 degrees of freedom in the 1st order CPHF.  IDoFFX=6 NUNeed=     0.
    150 vectors produced by pass  0 Test12= 3.16D-14 1.00D-09 XBig12= 1.22D-01 6.25D-02.
 AX will form   150 AO Fock derivatives at one time.
    150 vectors produced by pass  1 Test12= 3.16D-14 1.00D-09 XBig12= 3.27D-02 3.26D-02.
    150 vectors produced by pass  2 Test12= 3.16D-14 1.00D-09 XBig12= 6.10D-05 7.50D-04.
    150 vectors produced by pass  3 Test12= 3.16D-14 1.00D-09 XBig12= 6.93D-08 2.16D-05.
    123 vectors produced by pass  4 Test12= 3.16D-14 1.00D-09 XBig12= 7.99D-12 1.53D-07.
      5 vectors produced by pass  5 Test12= 3.16D-14 1.00D-09 XBig12= 9.00D-16 1.72D-09.
 InvSVY:  IOpt=1 It=  1 EMax= 5.55D-16
 Solved reduced A of dimension   728 with   156 vectors.
 End of Minotr F.D. properties file   721 does not exist.
 End of Minotr F.D. properties file   722 does not exist.
 End of Minotr F.D. properties file   788 does not exist.

 **********************************************************************

            Population analysis using the SCF Density.

 **********************************************************************

 Orbital symmetries:
       Occupied  (A) (A) (A) (A) (A) (A) (A) (A) (A) (A) (A) (A)
                 (A) (A) (A) (A) (A) (A) (A) (A) (A) (A) (A) (A)
                 (A) (A) (A) (A) (A) (A) (A) (A) (A) (A) (A) (A)
                 (A) (A) (A) (A) (A) (A) (A) (A) (A) (A) (A) (A)
                 (A) (A) (A) (A) (A) (A) (A) (A) (A) (A) (A) (A)
                 (A) (A) (A) (A) (A) (A) (A) (A) (A) (A) (A) (A)
                 (A) (A) (A) (A) (A) (A) (A) (A) (A) (A) (A) (A)
                 (A) (A) (A) (A) (A)
       Virtual   (A) (A) (A) (A) (A) (A) (A) (A) (A) (A) (A) (A)
                 (A) (A) (A) (A) (A) (A) (A) (A) (A) (A) (A) (A)
                 (A) (A) (A) (A) (A) (A) (A) (A) (A) (A) (A) (A)
                 (A) (A) (A) (A) (A) (A) (A) (A) (A) (A) (A) (A)
                 (A) (A) (A) (A) (A) (A) (A) (A) (A) (A) (A) (A)
                 (A) (A) (A) (A) (A) (A) (A) (A) (A) (A) (A) (A)
                 (A) (A) (A) (A) (A) (A) (A) (A) (A) (A) (A) (A)
                 (A) (A) (A) (A) (A) (A) (A) (A) (A) (A) (A) (A)
                 (A) (A) (A) (A) (A) (A) (A) (A) (A) (A) (A) (A)
                 (A) (A) (A) (A) (A) (A) (A) (A) (A) (A) (A) (A)
                 (A) (A) (A) (A) (A) (A) (A) (A) (A) (A) (A) (A)
                 (A) (A) (A) (A) (A) (A) (A) (A) (A) (A) (A) (A)
                 (A) (A) (A) (A) (A) (A) (A) (A) (A) (A) (A) (A)
                 (A) (A) (A) (A) (A) (A) (A) (A) (A) (A) (A) (A)
                 (A) (A) (A) (A) (A) (A) (A) (A) (A) (A) (A) (A)
                 (A) (A) (A) (A) (A) (A) (A) (A) (A) (A) (A) (A)
                 (A) (A) (A) (A) (A) (A) (A) (A) (A) (A) (A) (A)
                 (A) (A) (A) (A) (A) (A) (A) (A) (A) (A) (A) (A)
                 (A) (A) (A) (A) (A) (A) (A) (A) (A) (A) (A) (A)
                 (A) (A) (A) (A) (A) (A) (A) (A) (A) (A) (A) (A)
                 (A) (A) (A) (A) (A) (A) (A) (A) (A) (A) (A) (A)
                 (A) (A) (A) (A) (A) (A) (A) (A) (A) (A) (A) (A)
                 (A) (A) (A) (A) (A) (A) (A) (A) (A) (A) (A) (A)
                 (A) (A) (A) (A) (A) (A) (A) (A) (A) (A) (A) (A)
                 (A) (A) (A) (A) (A) (A) (A) (A) (A) (A) (A) (A)
                 (A) (A) (A) (A) (A) (A) (A) (A) (A) (A) (A) (A)
                 (A) (A) (A) (A) (A) (A) (A) (A) (A) (A) (A) (A)
                 (A) (A) (A) (A) (A) (A) (A) (A) (A) (A) (A) (A)
                 (A) (A) (A) (A) (A) (A) (A) (A) (A) (A) (A) (A)
                 (A) (A) (A) (A) (A) (A) (A)
 The electronic state is 1-A.
 Alpha  occ. eigenvalues --  -18.77123 -18.75407 -18.75359 -18.75281 -14.05990
 Alpha  occ. eigenvalues --  -14.05301 -14.05135 -14.05038 -10.00105  -9.99628
 Alpha  occ. eigenvalues --   -9.99595  -9.99416  -9.93781  -9.93699  -9.93593
 Alpha  occ. eigenvalues --   -9.93492  -9.93336  -9.93175  -9.92901  -9.92376
 Alpha  occ. eigenvalues --   -0.96818  -0.95711  -0.95533  -0.95417  -0.87981
 Alpha  occ. eigenvalues --   -0.87352  -0.87206  -0.87050  -0.67255  -0.67076
 Alpha  occ. eigenvalues --   -0.66859  -0.66551  -0.65269  -0.64734  -0.64610
 Alpha  occ. eigenvalues --   -0.64494  -0.62275  -0.61709  -0.52236  -0.52063
 Alpha  occ. eigenvalues --   -0.51719  -0.51471  -0.48204  -0.47132  -0.46961
 Alpha  occ. eigenvalues --   -0.46832  -0.46516  -0.43979  -0.43875  -0.43700
 Alpha  occ. eigenvalues --   -0.43222  -0.42964  -0.42862  -0.42533  -0.41049
 Alpha  occ. eigenvalues --   -0.38148  -0.37686  -0.37398  -0.36708  -0.36525
 Alpha  occ. eigenvalues --   -0.36462  -0.36372  -0.36314  -0.36217  -0.35924
 Alpha  occ. eigenvalues --   -0.35764  -0.35644  -0.35284  -0.35055  -0.34831
 Alpha  occ. eigenvalues --   -0.34390  -0.34303  -0.34179  -0.33766  -0.33463
 Alpha  occ. eigenvalues --   -0.25250  -0.24646  -0.23971  -0.23139  -0.22866
 Alpha  occ. eigenvalues --   -0.22815  -0.22522  -0.22250  -0.22086  -0.21826
 Alpha  occ. eigenvalues --   -0.21650  -0.21216  -0.20892  -0.19898
 Alpha virt. eigenvalues --   -0.04391  -0.03880  -0.03629  -0.02947  -0.01803
 Alpha virt. eigenvalues --   -0.01080  -0.00514   0.01589   0.02986   0.03565
 Alpha virt. eigenvalues --    0.05085   0.05993   0.06294   0.06946   0.07343
 Alpha virt. eigenvalues --    0.08255   0.08436   0.08562   0.08995   0.09678
 Alpha virt. eigenvalues --    0.09740   0.09948   0.10395   0.10720   0.11007
 Alpha virt. eigenvalues --    0.11238   0.11658   0.11734   0.12318   0.12583
 Alpha virt. eigenvalues --    0.12908   0.13154   0.13469   0.13887   0.14576
 Alpha virt. eigenvalues --    0.14771   0.15814   0.16496   0.17498   0.18138
 Alpha virt. eigenvalues --    0.18575   0.18922   0.19225   0.22356   0.24086
 Alpha virt. eigenvalues --    0.24102   0.25227   0.27372   0.28231   0.29742
 Alpha virt. eigenvalues --    0.30316   0.30877   0.31344   0.32214   0.32568
 Alpha virt. eigenvalues --    0.34712   0.34851   0.35604   0.35724   0.36241
 Alpha virt. eigenvalues --    0.37463   0.38382   0.39737   0.39888   0.40174
 Alpha virt. eigenvalues --    0.40826   0.41618   0.41827   0.42591   0.43010
 Alpha virt. eigenvalues --    0.44645   0.46665   0.47543   0.49211   0.49777
 Alpha virt. eigenvalues --    0.50229   0.50538   0.50851   0.51620   0.51705
 Alpha virt. eigenvalues --    0.51872   0.52316   0.52813   0.52996   0.53695
 Alpha virt. eigenvalues --    0.54040   0.54539   0.54743   0.55177   0.56008
 Alpha virt. eigenvalues --    0.56104   0.56391   0.57166   0.57394   0.57635
 Alpha virt. eigenvalues --    0.57864   0.58334   0.58741   0.58945   0.59303
 Alpha virt. eigenvalues --    0.59943   0.59967   0.60163   0.60634   0.60998
 Alpha virt. eigenvalues --    0.61214   0.61400   0.61706   0.62207   0.63250
 Alpha virt. eigenvalues --    0.63793   0.63918   0.64231   0.65888   0.66168
 Alpha virt. eigenvalues --    0.67007   0.67476   0.68471   0.68671   0.69820
 Alpha virt. eigenvalues --    0.70066   0.71160   0.72052   0.72951   0.73362
 Alpha virt. eigenvalues --    0.73714   0.74609   0.75574   0.76702   0.78765
 Alpha virt. eigenvalues --    0.78973   0.79449   0.80260   0.82120   0.82845
 Alpha virt. eigenvalues --    0.84203   0.85556   0.86900   0.87211   0.87311
 Alpha virt. eigenvalues --    0.87834   0.88921   0.91408   0.91974   0.93567
 Alpha virt. eigenvalues --    0.93929   0.94316   0.96532   0.96962   0.97354
 Alpha virt. eigenvalues --    0.98763   0.99128   1.00836   1.01818   1.02805
 Alpha virt. eigenvalues --    1.04713   1.06390   1.07926   1.08369   1.08997
 Alpha virt. eigenvalues --    1.09338   1.10975   1.11508   1.12117   1.12839
 Alpha virt. eigenvalues --    1.14193   1.16811   1.17773   1.19987   1.20401
 Alpha virt. eigenvalues --    1.22366   1.24488   1.25471   1.26384   1.27342
 Alpha virt. eigenvalues --    1.28638   1.29328   1.29890   1.30786   1.31194
 Alpha virt. eigenvalues --    1.31375   1.31949   1.32263   1.32378   1.32764
 Alpha virt. eigenvalues --    1.33338   1.33569   1.33597   1.33918   1.34320
 Alpha virt. eigenvalues --    1.34717   1.34824   1.35171   1.35966   1.37388
 Alpha virt. eigenvalues --    1.39091   1.41356   1.41783   1.42504   1.42930
 Alpha virt. eigenvalues --    1.46780   1.47941   1.49463   1.50101   1.51483
 Alpha virt. eigenvalues --    1.51969   1.52305   1.52990   1.53865   1.54248
 Alpha virt. eigenvalues --    1.55726   1.55833   1.56650   1.57082   1.57522
 Alpha virt. eigenvalues --    1.57950   1.58747   1.59852   1.59983   1.60182
 Alpha virt. eigenvalues --    1.60500   1.60990   1.61158   1.61534   1.62570
 Alpha virt. eigenvalues --    1.62870   1.63659   1.63912   1.65045   1.65308
 Alpha virt. eigenvalues --    1.65537   1.66066   1.66655   1.66974   1.67369
 Alpha virt. eigenvalues --    1.67414   1.67766   1.68298   1.68477   1.69220
 Alpha virt. eigenvalues --    1.69430   1.70482   1.71452   1.71917   1.72652
 Alpha virt. eigenvalues --    1.72703   1.73676   1.75433   1.76579   1.78054
 Alpha virt. eigenvalues --    1.79304   1.80364   1.81985   1.83027   1.83862
 Alpha virt. eigenvalues --    1.86322   1.88418   1.88830   1.89217   1.89338
 Alpha virt. eigenvalues --    1.89470   1.90355   1.90520   1.91310   1.92957
 Alpha virt. eigenvalues --    1.93707   1.94713   1.97581   1.98411   1.99281
 Alpha virt. eigenvalues --    1.99762   2.00175   2.00843   2.01688   2.01774
 Alpha virt. eigenvalues --    2.02653   2.05443   2.06691   2.07705   2.09670
 Alpha virt. eigenvalues --    2.14853   2.15160   2.15325   2.16995   2.23655
 Alpha virt. eigenvalues --    2.24440   2.25165   2.25850   2.26537   2.27803
 Alpha virt. eigenvalues --    2.28377   2.28745   2.29310   2.29808   2.30464
 Alpha virt. eigenvalues --    2.31528   2.32128   2.32867   2.32911   2.34054
 Alpha virt. eigenvalues --    2.35282   2.36417   2.36812   2.37253   2.37442
 Alpha virt. eigenvalues --    2.37943   2.38457   2.38685   2.39533   2.40888
 Alpha virt. eigenvalues --    2.41703   2.42310   2.43223   2.43711   2.44323
 Alpha virt. eigenvalues --    2.45792   2.46539   2.47393   2.47933   2.48413
 Alpha virt. eigenvalues --    2.49542   2.50258   2.50689   2.51075   2.59925
 Alpha virt. eigenvalues --    2.60652   2.61215   2.61671   2.62174   2.62328
 Alpha virt. eigenvalues --    2.62467   2.64103   2.69296   2.69529   2.70166
 Alpha virt. eigenvalues --    2.71277   2.85597   2.87018   2.87079   2.87411
 Alpha virt. eigenvalues --    2.93596   2.96067   2.96154   2.96623   3.28793
 Alpha virt. eigenvalues --    3.29206   3.30101   3.31135   3.34160   3.36053
 Alpha virt. eigenvalues --    3.37893   3.38870   9.51435  18.40460  18.66016
          Condensed to atoms (all electrons):
 Mulliken charges:
               1
     1  Pb   0.826342
     2  Br  -0.640532
     3  Br  -0.637681
     4  O   -0.325981
     5  C    0.192574
     6  H    0.029237
     7  N   -0.195324
     8  C    0.010355
     9  C    0.023513
    10  H    0.062615
    11  H    0.059478
    12  H    0.063462
    13  H    0.065017
    14  H    0.061181
    15  H    0.052686
    16  O   -0.324449
    17  C    0.202227
    18  H    0.022946
    19  N   -0.200649
    20  C    0.000486
    21  C    0.028091
    22  H    0.060103
    23  H    0.061183
    24  H    0.061643
    25  H    0.059341
    26  H    0.063829
    27  H    0.053644
    28  O   -0.342873
    29  C    0.242352
    30  H    0.023543
    31  N   -0.191112
    32  C    0.024342
    33  C    0.031242
    34  H    0.066726
    35  H    0.064759
    36  H    0.065878
    37  H    0.065853
    38  H    0.066708
    39  H    0.058954
    40  O   -0.330298
    41  C    0.195613
    42  H    0.027798
    43  N   -0.194095
    44  C    0.018269
    45  C    0.029445
    46  H    0.058672
    47  H    0.060558
    48  H    0.062295
    49  H    0.066386
    50  H    0.053268
    51  H    0.040381
 Sum of Mulliken charges =  -0.00000
 Mulliken charges with hydrogens summed into heavy atoms:
               1
     1  Pb   0.826342
     2  Br  -0.640532
     3  Br  -0.637681
     4  O   -0.325981
     5  C    0.221811
     7  N   -0.195324
     8  C    0.189239
     9  C    0.209068
    16  O   -0.324449
    17  C    0.225173
    19  N   -0.200649
    20  C    0.177299
    21  C    0.211020
    28  O   -0.342873
    29  C    0.265894
    31  N   -0.191112
    32  C    0.215857
    33  C    0.228605
    40  O   -0.330298
    41  C    0.223411
    43  N   -0.194095
    44  C    0.178303
    45  C    0.210971
 APT charges:
               1
     1  Pb   0.753561
     2  Br  -0.542596
     3  Br  -0.581393
     4  O   -0.858164
     5  C   -0.035338
     6  H    0.483222
     7  N   -0.342929
     8  C   -0.603370
     9  C   -0.825239
    10  H    0.411597
    11  H    0.220140
    12  H    0.851571
    13  H    0.104272
    14  H    0.842169
    15  H   -0.153323
    16  O   -1.165068
    17  C    0.122511
    18  H    0.514873
    19  N   -0.318947
    20  C   -0.602539
    21  C   -0.884772
    22  H    0.459630
    23  H    0.511543
    24  H    0.658661
    25  H    0.538779
    26  H    0.553193
    27  H   -0.346873
    28  O   -0.901450
    29  C   -0.049348
    30  H    0.097735
    31  N   -0.117739
    32  C   -0.757353
    33  C   -0.829732
    34  H    0.060015
    35  H    0.585651
    36  H    0.865720
    37  H    0.555760
    38  H    0.871439
    39  H   -0.234608
    40  O   -0.998045
    41  C    0.021168
    42  H    0.633201
    43  N   -0.379992
    44  C   -0.525557
    45  C   -0.854868
    46  H    0.569578
    47  H    0.160951
    48  H    0.835572
    49  H   -0.019896
    50  H    0.815026
    51  H   -0.168397
 Sum of APT charges =  -0.00000
 APT charges with hydrogens summed into heavy atoms:
               1
     1  Pb   0.753561
     2  Br  -0.542596
     3  Br  -0.581393
     4  O   -0.858164
     5  C    0.447884
     7  N   -0.342929
     8  C    0.189748
     9  C    0.658069
    16  O   -1.165068
    17  C    0.637384
    19  N   -0.318947
    20  C    0.142559
    21  C    0.745061
    28  O   -0.901450
    29  C    0.048386
    31  N   -0.117739
    32  C    0.435238
    33  C    0.681655
    40  O   -0.998045
    41  C    0.654369
    43  N   -0.379992
    44  C    0.101176
    45  C    0.711233
 Electronic spatial extent (au):  <R**2>=          10608.3885
 Charge=             -0.0000 electrons
 Dipole moment (field-independent basis, Debye):
    X=            -16.0687    Y=             22.3674    Z=              4.1115  Tot=             27.8461
 Quadrupole moment (field-independent basis, Debye-Ang):
   XX=           -105.3629   YY=           -134.6701   ZZ=           -184.5477
   XY=             31.1083   XZ=              5.8882   YZ=             -6.3010
 Traceless Quadrupole moment (field-independent basis, Debye-Ang):
   XX=             36.1640   YY=              6.8568   ZZ=            -43.0208
   XY=             31.1083   XZ=              5.8882   YZ=             -6.3010
 Octapole moment (field-independent basis, Debye-Ang**2):
  XXX=             20.1703  YYY=             49.7812  ZZZ=            -23.7831  XYY=            -25.4079
  XXY=             60.5851  XXZ=             34.4547  XZZ=            -34.4472  YZZ=              3.6775
  YYZ=             25.5909  XYZ=             28.6135
 Hexadecapole moment (field-independent basis, Debye-Ang**3):
 XXXX=          -5508.8509 YYYY=          -5127.5742 ZZZZ=          -2875.6168 XXXY=            289.9179
 XXXZ=             65.8234 YYYX=           -128.8236 YYYZ=             67.0881 ZZZX=            -29.7290
 ZZZY=             12.8772 XXYY=          -1561.4116 XXZZ=          -1449.4210 YYZZ=          -1384.6244
 XXYZ=            -38.8503 YYXZ=             17.9969 ZZXY=             29.3946
 N-N= 1.978595410480D+03 E-N=-6.331512334314D+03  KE= 9.961600996731D+02
  Exact polarizability:       0.000       0.000       0.000       0.000       0.000       0.000
 Approx polarizability:     473.345     -23.272     439.900     -21.119      10.254     422.301
   1 Symmetry operations used in ECPInt.
 ECPInt:  NShTT=   23436 NPrTT=  156951 LenC2=   20719 LenP2D=   74590.
 LDataN:  DoStor=T MaxTD1= 8 Len=  415
 D2PCM: PCM CHGder 2nd derivatives, FixD1E=F FixD2E=F DoIter=F DoCFld=F I1PDM=0
 Calling FoFJK, ICntrl=    100527 FMM=F ISym2X=0 I1Cent= 0 IOpClX= 0 NMat=1 NMatS=1 NMatT=0.
 Defaulting to unpruned grid for atomic number  82.
 Defaulting to unpruned grid for atomic number  82.
 Defaulting to unpruned grid for atomic number  82.
 Defaulting to unpruned grid for atomic number  82.
 ***** Axes restored to original set *****
 -------------------------------------------------------------------
 Center     Atomic                   Forces (Hartrees/Bohr)
 Number     Number              X              Y              Z
 -------------------------------------------------------------------
      1       82          -0.001666223    0.001770348    0.001268821
      2       35          -0.000074470   -0.000030092    0.000104090
      3       35           0.000077405    0.000256768   -0.000227509
      4        8           0.004987854   -0.006265049   -0.001782473
      5        6           0.001684878   -0.001308477    0.000113821
      6        1           0.000719408    0.006552518    0.001804235
      7        7          -0.006025993   -0.000632408    0.001022940
      8        6           0.001845447    0.004677766    0.001441438
      9        6           0.003885761   -0.004076727   -0.001880139
     10        1           0.003127352    0.005156558    0.001072655
     11        1          -0.002742799   -0.002045982    0.005114458
     12        1          -0.004699718    0.001143832   -0.003998661
     13        1          -0.001590468   -0.003258890    0.005140264
     14        1          -0.004958771    0.000472098   -0.003628164
     15        1           0.005202471   -0.002897853   -0.002691217
     16        8           0.005142671   -0.004839583   -0.004984878
     17        6           0.000019148   -0.000396531   -0.000606052
     18        1          -0.005906346   -0.001521221    0.002227383
     19        7           0.000409308    0.005731796    0.001384868
     20        6          -0.004462368   -0.002444314    0.000797729
     21        6           0.003970383   -0.002974492   -0.002975703
     22        1          -0.004884685   -0.003562124    0.000770395
     23        1          -0.001645117    0.005183488   -0.002856251
     24        1           0.002299707    0.001759923    0.005485130
     25        1          -0.001000017    0.005446310   -0.002565609
     26        1           0.003436936    0.001090159    0.005184352
     27        1           0.002967270   -0.004572913   -0.004285037
     28        8          -0.005823017    0.001680960   -0.006942426
     29        6          -0.000015440   -0.001195525    0.000620544
     30        1           0.001125258   -0.005821249    0.002948242
     31        7           0.003003825    0.004010957    0.002637330
     32        6           0.000144070   -0.004854534    0.001636528
     33        6          -0.003257879    0.000909863   -0.004585871
     34        1          -0.000323473   -0.006008261    0.001142549
     35        1          -0.001971055    0.003315222    0.004814023
     36        1           0.005796552    0.001772720   -0.001021576
     37        1          -0.002324938    0.003600613    0.004439294
     38        1           0.005653884    0.002174261   -0.001303434
     39        1          -0.003793965   -0.000706386   -0.005115615
     40        8           0.007615211    0.002618230    0.000067400
     41        6           0.001859542    0.000850715   -0.000490750
     42        1          -0.005039493   -0.000016894   -0.004631063
     43        7          -0.003165540   -0.001514694    0.005234903
     44        6          -0.003002595    0.000662667   -0.004281334
     45        6           0.005744454    0.000573484   -0.000454344
     46        1          -0.002358053    0.000660884   -0.005626599
     47        1          -0.002375837    0.004143891    0.003874031
     48        1          -0.001559666   -0.005566814    0.002368409
     49        1          -0.000051278    0.005376620    0.003294571
     50        1          -0.001916582   -0.004855082    0.003222416
     51        1           0.005916990   -0.000226554   -0.002298114
 -------------------------------------------------------------------
 Cartesian Forces:  Max     0.007615211 RMS     0.003443476

 GradGradGradGradGradGradGradGradGradGradGradGradGradGradGradGradGradGrad
 Berny optimization.
 Search for a local minimum.
 Step number   1 out of a maximum of  163
 All quantities printed in internal units (Hartrees-Bohrs-Radians)
 Second derivative matrix not updated -- analytic derivatives used.
 ITU=  0
     Eigenvalues ---   -0.00263  -0.00235  -0.00232  -0.00187  -0.00180
     Eigenvalues ---   -0.00172  -0.00156  -0.00136  -0.00044  -0.00039
     Eigenvalues ---   -0.00034  -0.00027  -0.00015  -0.00010   0.00002
     Eigenvalues ---    0.00013   0.00025   0.00038   0.00053   0.00070
     Eigenvalues ---    0.00081   0.00104   0.00120   0.00149   0.00153
     Eigenvalues ---    0.00206   0.00287   0.00330   0.00401   0.00576
     Eigenvalues ---    0.00692   0.00773   0.00800   0.00819   0.00919
     Eigenvalues ---    0.00995   0.01026   0.01061   0.01116   0.01124
     Eigenvalues ---    0.01152   0.01230   0.01325   0.01442   0.01579
     Eigenvalues ---    0.01632   0.01923   0.02515   0.03656   0.05500
     Eigenvalues ---    0.05522   0.05547   0.05604   0.06187   0.06197
     Eigenvalues ---    0.06225   0.06250   0.06305   0.06366   0.06375
     Eigenvalues ---    0.06379   0.06419   0.07272   0.07297   0.07333
     Eigenvalues ---    0.07383   0.07571   0.08759   0.08804   0.08820
     Eigenvalues ---    0.08990   0.09013   0.09299   0.09416   0.09650
     Eigenvalues ---    0.09762   0.09844   0.09889   0.09907   0.09966
     Eigenvalues ---    0.10009   0.10039   0.10069   0.11263   0.11350
     Eigenvalues ---    0.11395   0.12527   0.15420   0.15448   0.15641
     Eigenvalues ---    0.15692   0.17643   0.17799   0.17930   0.18061
     Eigenvalues ---    0.18775   0.18843   0.18906   0.19296   0.21488
     Eigenvalues ---    0.21841   0.21903   0.21977   0.25062   0.25162
     Eigenvalues ---    0.25256   0.25508   0.42250   0.43287   0.43341
     Eigenvalues ---    0.43989   0.52727   0.52847   0.53318   0.53512
     Eigenvalues ---    0.68482   0.68582   0.68805   0.68942   0.78301
     Eigenvalues ---    0.79404   0.80092   0.80666   0.80777   0.81526
     Eigenvalues ---    0.82179   0.83143   0.83478   0.83755   0.84097
     Eigenvalues ---    0.84179   0.86385   0.86898   0.87748   0.87934
     Eigenvalues ---    0.89361   0.90181   0.90625   0.91107   1.12077
     Eigenvalues ---    1.12698   1.13448   1.19469   1.36303   1.41138
     Eigenvalues ---    1.42589   1.44777
 RFO step:  Lambda=-4.70665474D-03 EMin=-2.62614270D-03
 Linear search not attempted -- first point.
 Maximum step size (   0.300) exceeded in Quadratic search.
    -- Step size scaled by   0.305
 B after Tr=    -0.000252    0.000219   -0.000199
         Rot=    1.000000   -0.000069   -0.000080   -0.000047 Ang=  -0.01 deg.
 Variable       Old X    -DE/DX   Delta X   Delta X   Delta X     New X
                                 (Linear)    (Quad)   (Total)
    X1        0.62011  -0.00167   0.00000  -0.01176  -0.01226   0.60785
    Y1       -0.59936   0.00177   0.00000   0.00510   0.00564  -0.59373
    Z1       -1.90205   0.00127   0.00000   0.01345   0.01307  -1.88898
    X2        4.16804  -0.00007   0.00000  -0.01163  -0.01273   4.15531
    Y2       -1.25831  -0.00003   0.00000   0.00627   0.00772  -1.25060
    Z2       -6.01923   0.00010   0.00000   0.00189   0.00085  -6.01838
    X3        2.95901   0.00008   0.00000   0.01000   0.01041   2.96941
    Y3       -4.25355   0.00026   0.00000  -0.00082  -0.00054  -4.25408
    Z3        1.60101  -0.00023   0.00000   0.00284   0.00157   1.60258
    X4       -1.34087   0.00499   0.00000   0.00176   0.00052  -1.34035
    Y4        3.61499  -0.00627   0.00000  -0.02179  -0.02114   3.59385
    Z4       -4.05344  -0.00178   0.00000   0.01303   0.01355  -4.03990
    X5       -3.01166   0.00168   0.00000   0.00518   0.00392  -3.00774
    Y5        5.07040  -0.00131   0.00000  -0.01235  -0.01196   5.05844
    Z5       -3.26095   0.00011   0.00000   0.01068   0.01167  -3.24928
    X6       -2.58150   0.00072   0.00000   0.00861   0.00724  -2.57425
    Y6        7.05697   0.00655   0.00000  -0.00634  -0.00599   7.05099
    Z6       -2.76176   0.00180   0.00000   0.00844   0.00964  -2.75212
    X7       -5.46295  -0.00603   0.00000  -0.00054  -0.00168  -5.46464
    Y7        4.48281  -0.00063   0.00000  -0.00602  -0.00592   4.47689
    Z7       -2.92692   0.00102   0.00000   0.00897   0.01027  -2.91665
    X8       -6.43267   0.00185   0.00000  -0.00087  -0.00187  -6.43454
    Y8        1.97994   0.00468   0.00000  -0.00549  -0.00540   1.97455
    Z8       -3.52275   0.00144   0.00000   0.00727   0.00838  -3.51437
    X9       -7.25001   0.00389   0.00000   0.00195   0.00079  -7.24922
    Y9        6.32518  -0.00408   0.00000  -0.00092  -0.00112   6.32406
    Z9       -1.94105  -0.00188   0.00000   0.00262   0.00446  -1.93659
   X10       -6.26614   0.00313   0.00000   0.00705   0.00578  -6.26036
   Y10        8.10247   0.00516   0.00000   0.00375   0.00359   8.10606
   Z10       -1.53548   0.00107   0.00000  -0.00341  -0.00147  -1.53695
   X11       -8.11460  -0.00274   0.00000  -0.00241  -0.00322  -8.11782
   Y11        5.62212  -0.00205   0.00000   0.00531   0.00479   5.62691
   Z11       -0.18693   0.00511   0.00000   0.00933   0.01122  -0.17571
   X12       -8.75983  -0.00470   0.00000  -0.00244  -0.00386  -8.76368
   Y12        6.68324   0.00114   0.00000  -0.00220  -0.00235   6.68090
   Z12       -3.32252  -0.00400   0.00000  -0.00124   0.00090  -3.32162
   X13       -6.98877  -0.00159   0.00000  -0.02621  -0.02685  -7.01562
   Y13        0.98243  -0.00326   0.00000  -0.00101  -0.00120   0.98123
   Z13       -1.78619   0.00514   0.00000   0.00810   0.00917  -1.77702
   X14       -8.09268  -0.00496   0.00000   0.01069   0.00946  -8.08321
   Y14        2.14629   0.00047   0.00000  -0.00650  -0.00639   2.13991
   Z14       -4.75835  -0.00363   0.00000  -0.01765  -0.01625  -4.77460
   X15       -4.95588   0.00520   0.00000   0.01484   0.01378  -4.94210
   Y15        0.90166  -0.00290   0.00000  -0.01268  -0.01231   0.88935
   Z15       -4.48774  -0.00269   0.00000   0.02794   0.02866  -4.45908
   X16       -2.63420   0.00514   0.00000  -0.00574  -0.00576  -2.63996
   Y16        0.88201  -0.00484   0.00000  -0.00498  -0.00528   0.87673
   Z16        1.95942  -0.00498   0.00000  -0.00977  -0.00942   1.95000
   X17       -4.10685   0.00002   0.00000  -0.00439  -0.00435  -4.11120
   Y17        2.28496  -0.00040   0.00000  -0.00389  -0.00449   2.28047
   Z17        3.13364  -0.00061   0.00000  -0.00319  -0.00241   3.13123
   X18       -6.00474  -0.00591   0.00000  -0.00645  -0.00625  -6.01099
   Y18        1.62333  -0.00152   0.00000  -0.00518  -0.00605   1.61728
   Z18        3.72520   0.00223   0.00000   0.00748   0.00848   3.73368
   X19       -3.65159   0.00041   0.00000  -0.00224  -0.00232  -3.65391
   Y19        4.69200   0.00573   0.00000  -0.00060  -0.00125   4.69075
   Z19        3.82424   0.00138   0.00000  -0.00413  -0.00309   3.82115
   X20       -1.26564  -0.00446   0.00000  -0.00142  -0.00171  -1.26736
   Y20        5.92818  -0.00244   0.00000  -0.00366  -0.00401   5.92417
   Z20        3.23882   0.00080   0.00000  -0.00841  -0.00758   3.23124
   X21       -5.48984   0.00397   0.00000  -0.00085  -0.00083  -5.49068
   Y21        6.12952  -0.00297   0.00000  -0.00235  -0.00338   6.12613
   Z21        5.27929  -0.00298   0.00000  -0.00080   0.00074   5.28003
   X22       -7.18799  -0.00488   0.00000  -0.00064  -0.00046  -7.18845
   Y22        4.98321  -0.00356   0.00000  -0.01009  -0.01133   4.97188
   Z22        5.58594   0.00077   0.00000   0.00686   0.00851   5.59444
   X23       -6.01902  -0.00165   0.00000  -0.01140  -0.01171  -6.03073
   Y23        7.86132   0.00518   0.00000  -0.00095  -0.00189   7.85943
   Z23        4.25969  -0.00286   0.00000  -0.00391  -0.00205   4.25764
   X24       -4.69599   0.00230   0.00000   0.00466   0.00492  -4.69107
   Y24        6.66508   0.00176   0.00000   0.00512   0.00390   6.66899
   Z24        7.12393   0.00549   0.00000   0.00069   0.00217   7.12610
   X25       -1.63167  -0.00100   0.00000  -0.00025  -0.00086  -1.63253
   Y25        7.76868   0.00545   0.00000  -0.00153  -0.00179   7.76690
   Z25        2.34874  -0.00257   0.00000  -0.01698  -0.01584   2.33290
   X26       -0.16768   0.00344   0.00000   0.00099   0.00094  -0.16673
   Y26        6.24536   0.00109   0.00000   0.00413   0.00365   6.24900
   Z26        4.97650   0.00518   0.00000  -0.00453  -0.00383   4.97267
   X27       -0.17612   0.00297   0.00000  -0.00023  -0.00061  -0.17673
   Y27        4.73535  -0.00457   0.00000  -0.01438  -0.01445   4.72091
   Z27        1.94929  -0.00429   0.00000  -0.00628  -0.00579   1.94350
   X28        3.40988  -0.00582   0.00000  -0.01762  -0.01814   3.39174
   Y28        2.70322   0.00168   0.00000   0.00987   0.01042   2.71363
   Z28       -0.06625  -0.00694   0.00000   0.00491   0.00454  -0.06171
   X29        4.79652  -0.00002   0.00000  -0.00034  -0.00053   4.79599
   Y29        2.40628  -0.00120   0.00000  -0.00192  -0.00150   2.40478
   Z29        1.83850   0.00062   0.00000  -0.00532  -0.00595   1.83254
   X30        5.06834   0.00113   0.00000   0.00877   0.00890   5.07724
   Y30        0.52446  -0.00582   0.00000  -0.01038  -0.01005   0.51440
   Z30        2.69823   0.00295   0.00000  -0.01292  -0.01386   2.68437
   X31        6.03607   0.00300   0.00000   0.01123   0.01105   6.04712
   Y31        4.28093   0.00401   0.00000  -0.00294  -0.00257   4.27836
   Z31        2.98650   0.00264   0.00000  -0.00855  -0.00912   2.97738
   X32        5.87040   0.00014   0.00000  -0.00250  -0.00307   5.86733
   Y32        6.88138  -0.00485   0.00000  -0.00153  -0.00105   6.88033
   Z32        2.09472   0.00164   0.00000  -0.00226  -0.00245   2.09228
   X33        7.60900  -0.00326   0.00000   0.00201   0.00223   7.61123
   Y33        3.80020   0.00091   0.00000  -0.00297  -0.00275   3.79745
   Z33        5.19406  -0.00459   0.00000  -0.00259  -0.00349   5.19058
   X34        7.55991  -0.00032   0.00000   0.02239   0.02288   7.58279
   Y34        1.78337  -0.00601   0.00000  -0.01283  -0.01268   1.77069
   Z34        5.65977   0.00114   0.00000  -0.02007  -0.02124   5.63852
   X35        6.91044  -0.00197   0.00000  -0.02290  -0.02252   6.88793
   Y35        4.88970   0.00332   0.00000  -0.02313  -0.02321   4.86649
   Z35        6.81879   0.00481   0.00000   0.00748   0.00685   6.82565
   X36        9.57152   0.00580   0.00000   0.00265   0.00276   9.57428
   Y36        4.36164   0.00177   0.00000   0.02612   0.02657   4.38821
   Z36        4.80988  -0.00102   0.00000   0.01526   0.01413   4.82402
   X37        5.05721  -0.00232   0.00000  -0.09525  -0.09569   4.96152
   Y37        8.08691   0.00360   0.00000  -0.01807  -0.01787   8.06904
   Z37        3.57831   0.00444   0.00000  -0.03129  -0.03117   3.54714
   X38        7.76647   0.00565   0.00000   0.00938   0.00868   7.77515
   Y38        7.58801   0.00217   0.00000   0.03881   0.03953   7.62753
   Z38        1.62893  -0.00130   0.00000   0.08539   0.08500   1.71392
   X39        4.67150  -0.00379   0.00000   0.06668   0.06583   4.73733
   Y39        6.94072  -0.00071   0.00000  -0.02235  -0.02173   6.91899
   Z39        0.41209  -0.00512   0.00000  -0.05878  -0.05878   0.35332
   X40       -2.65448   0.00762   0.00000   0.00294   0.00245  -2.65203
   Y40       -4.01877   0.00262   0.00000   0.02484   0.02535  -3.99342
   Z40       -3.84436   0.00007   0.00000   0.00620   0.00587  -3.83849
   X41       -4.94025   0.00186   0.00000   0.00155   0.00116  -4.93909
   Y41       -4.45335   0.00085   0.00000   0.00941   0.00965  -4.44370
   Z41       -3.46869  -0.00049   0.00000  -0.00297  -0.00299  -3.47167
   X42       -6.32614  -0.00504   0.00000  -0.00037  -0.00101  -6.32716
   Y42       -4.39641  -0.00002   0.00000  -0.00026   0.00006  -4.39635
   Z42       -5.03646  -0.00463   0.00000  -0.00945  -0.00924  -5.04570
   X43       -6.00037  -0.00317   0.00000   0.00088   0.00091  -5.99946
   Y43       -5.03168  -0.00151   0.00000  -0.00204  -0.00221  -5.03389
   Z43       -1.23628   0.00523   0.00000  -0.00249  -0.00242  -1.23870
   X44       -4.49320  -0.00300   0.00000   0.01023   0.01065  -4.48256
   Y44       -5.25567   0.00066   0.00000   0.01281   0.01246  -5.24321
   Z44        1.05813  -0.00428   0.00000  -0.00588  -0.00608   1.05205
   X45       -8.72279   0.00574   0.00000   0.00055   0.00065  -8.72214
   Y45       -5.34018   0.00057   0.00000   0.00409   0.00362  -5.33656
   Z45       -0.99292  -0.00045   0.00000  -0.00077  -0.00031  -0.99323
   X46       -9.61963  -0.00236   0.00000   0.00001  -0.00022  -9.61985
   Y46       -5.12972   0.00066   0.00000   0.00425   0.00396  -5.12576
   Z46       -2.84827  -0.00563   0.00000  -0.00642  -0.00578  -2.85405
   X47       -9.49791  -0.00238   0.00000   0.00035   0.00051  -9.49740
   Y47       -3.90204   0.00414   0.00000   0.01186   0.01114  -3.89090
   Z47        0.29298   0.00387   0.00000  -0.00067   0.00012   0.29311
   X48       -9.17020  -0.00156   0.00000  -0.00712  -0.00672  -9.17692
   Y48       -7.21996  -0.00557   0.00000   0.00211   0.00149  -7.21847
   Z48       -0.23083   0.00237   0.00000   0.00436   0.00463  -0.22620
   X49       -4.68223  -0.00005   0.00000   0.11452   0.11494  -4.56729
   Y49       -3.54889   0.00538   0.00000   0.07471   0.07420  -3.47469
   Z49        2.22825   0.00329   0.00000  -0.06896  -0.06890   2.15935
   X50       -5.13731  -0.00192   0.00000  -0.06623  -0.06548  -5.20280
   Y50       -6.90716  -0.00486   0.00000   0.08343   0.08285  -6.82431
   Z50        2.13641   0.00322   0.00000   0.06521   0.06490   2.20131
   X51       -2.49837   0.00592   0.00000  -0.00101  -0.00064  -2.49901
   Y51       -5.48827  -0.00023   0.00000  -0.10662  -0.10671  -5.59499
   Z51        0.55785  -0.00230   0.00000  -0.01928  -0.01985   0.53800
         Item               Value     Threshold  Converged?
 Maximum Force            0.007615     0.000450     NO 
 RMS     Force            0.003443     0.000300     NO 
 Maximum Displacement     0.114943     0.001800     NO 
 RMS     Displacement     0.024241     0.001200     NO 
 Predicted change in Energy=-1.356290D-03
 GradGradGradGradGradGradGradGradGradGradGradGradGradGradGradGradGradGrad

 Stoichiometry    C12H28Br2N4O4Pb
 Framework group  C1[X(C12H28Br2N4O4Pb)]
 Deg. of freedom   147
 Full point group                 C1      NOp   1
 Largest Abelian subgroup         C1      NOp   1
 Largest concise Abelian subgroup C1      NOp   1
                         Standard orientation:                         
 ---------------------------------------------------------------------
 Center     Atomic      Atomic             Coordinates (Angstroms)
 Number     Number       Type             X           Y           Z
 ---------------------------------------------------------------------
      1         82           0        0.293971   -0.686656   -0.290187
      2         35           0        1.955162   -2.252562   -2.081348
      3         35           0        1.597257   -1.529191    2.223575
      4          8           0       -0.716082    0.733979   -2.347005
      5          6           0       -1.517982    1.688512   -2.339649
      6          1           0       -1.212822    2.706751   -2.661650
      7          7           0       -2.812163    1.627505   -1.968956
      8          6           0       -3.418215    0.375705   -1.541600
      9          6           0       -3.656705    2.811973   -1.975572
     10          1           0       -3.069324    3.682568   -2.299349
     11          1           0       -4.052536    3.005410   -0.964856
     12          1           0       -4.507637    2.675285   -2.662843
     13          1           0       -3.671804    0.414812   -0.469103
     14          1           0       -4.339318    0.191532   -2.117095
     15          1           0       -2.705139   -0.439309   -1.716798
     16          8           0       -1.200586    1.157635    1.142009
     17          6           0       -1.883025    2.179579    1.338362
     18          1           0       -2.873784    2.127463    1.839522
     19          7           0       -1.545160    3.438040    0.990831
     20          6           0       -0.282030    3.730023    0.329267
     21          6           0       -2.406500    4.565504    1.314233
     22          1           0       -3.317418    4.203874    1.811610
     23          1           0       -2.690387    5.105854    0.396026
     24          1           0       -1.886393    5.267552    1.986921
     25          1           0       -0.465195    4.345059   -0.566490
     26          1           0        0.385848    4.290995    1.005447
     27          1           0        0.200603    2.788548    0.040172
     28          8           0        1.933167    1.174549   -0.421737
     29          6           0        2.750645    1.474067    0.486956
     30          1           0        2.886201    0.828868    1.376550
     31          7           0        3.512646    2.572895    0.470643
     32          6           0        3.448348    3.527966   -0.628444
     33          6           0        4.424182    2.871837    1.566645
     34          1           0        4.374525    2.071324    2.317258
     35          1           0        4.147159    3.827832    2.040466
     36          1           0        5.457052    2.951015    1.190648
     37          1           0        3.070256    4.498795   -0.264154
     38          1           0        4.455859    3.677693   -1.050554
     39          1           0        2.775008    3.134262   -1.400710
     40          8           0       -1.603927   -2.600252   -0.177190
     41          6           0       -2.803555   -2.600384    0.169339
     42          1           0       -3.604996   -2.934091   -0.523685
     43          7           0       -3.275877   -2.223416    1.370789
     44          6           0       -2.378261   -1.778113    2.430064
     45          6           0       -4.706383   -2.168501    1.633480
     46          1           0       -5.258309   -2.527302    0.753481
     47          1           0       -5.016448   -1.131924    1.848561
     48          1           0       -4.961987   -2.798139    2.501026
     49          1           0       -2.324160   -0.674744    2.459098
     50          1           0       -2.747981   -2.156632    3.397119
     51          1           0       -1.366987   -2.167721    2.240492
 ---------------------------------------------------------------------
 Rotational constants (GHZ):           0.1314188           0.1204136           0.0953975
 Basis read from rwf:  (5D, 7F)
 Pseudo-potential data read from rwf file.
 There are   464 symmetry adapted cartesian basis functions of A   symmetry.
 There are   444 symmetry adapted basis functions of A   symmetry.
   444 basis functions,   892 primitive gaussians,   464 cartesian basis functions
    89 alpha electrons       89 beta electrons
       nuclear repulsion energy      1979.4568225531 Hartrees.
 NAtoms=   51 NActive=   51 NUniq=   51 SFac= 1.00D+00 NAtFMM=   60 NAOKFM=F Big=F
 Integral buffers will be    131072 words long.
 Raffenetti 2 integral format.
 Two-electron integral symmetry is turned on.
 Nuclear repulsion after empirical dispersion term =     1979.3942944084 Hartrees.
 ------------------------------------------------------------------------------
 Polarizable Continuum Model (PCM)
 =================================
 Model                : PCM.
 Atomic radii         : UFF (Universal Force Field).
 Polarization charges : Total charges.
 Charge compensation  : None.
 Solution method      : Matrix inversion.
 Cavity type          : Scaled VdW (van der Waals Surface) (Alpha=1.100).
 Cavity algorithm     : GePol (No added spheres)
                        Default sphere list used, NSphG=   51.
                        Lebedev-Laikov grids with approx.  5.0 points / Ang**2.
                        Smoothing algorithm: York/Karplus (Gamma=1.0000).
                        Polarization charges: spherical gaussians, with
                                              point-specific exponents (IZeta= 3).
                        Self-potential: point-specific (ISelfS= 7).
                        Self-field    : sphere-specific E.n sum rule (ISelfD= 2).
 1st derivatives      : Analytical E(r).r(x)/FMM algorithm (CHGder, D1EAlg=3).
                        Cavity 1st derivative terms included.
 Solvent              : n,n-DiMethylFormamide, Eps=  37.219000 Eps(inf)=   2.046330
 ------------------------------------------------------------------------------
 One-electron integrals computed using PRISM.
   1 Symmetry operations used in ECPInt.
 ECPInt:  NShTT=   23436 NPrTT=  156951 LenC2=   20724 LenP2D=   74635.
 LDataN:  DoStor=T MaxTD1= 6 Len=  172
 NBasis=   444 RedAO= T EigKep=  5.44D-03  NBF=   444
 NBsUse=   444 1.00D-06 EigRej= -1.00D+00 NBFU=   444
 Defaulting to unpruned grid for atomic number  82.
 Initial guess from the checkpoint file:  "01-PbBr2_DMF.chk"
 B after Tr=    -0.000000    0.000000   -0.000000
         Rot=    0.999999   -0.000290   -0.000786    0.000805 Ang=  -0.13 deg.
 ExpMin= 5.98D-02 ExpMax= 1.17D+04 ExpMxC= 4.01D+02 IAcc=3 IRadAn=         5 AccDes= 0.00D+00
 Harris functional with IExCor= 1009 and IRadAn=       5 diagonalized for initial guess.
 HarFok:  IExCor= 1009 AccDes= 0.00D+00 IRadAn=         5 IDoV= 1 UseB2=F ITyADJ=14
 ICtDFT=  3500011 ScaDFX=  1.000000  1.000000  1.000000  1.000000
 Defaulting to unpruned grid for atomic number  82.
 FoFCou: FMM=F IPFlag=           0 FMFlag=      100000 FMFlg1=           0
         NFxFlg=           0 DoJE=T BraDBF=F KetDBF=T FulRan=T
         wScrn=  0.000000 ICntrl=       500 IOpCl=  0 I1Cent=   200000004 NGrid=           0
         NMat0=    1 NMatS0=      1 NMatT0=    0 NMatD0=    1 NMtDS0=    0 NMtDT0=    0
 Petite list used in FoFCou.
 Requested convergence on RMS density matrix=1.00D-08 within 128 cycles.
 Requested convergence on MAX density matrix=1.00D-06.
 Requested convergence on             energy=1.00D-06.
 No special actions if energy rises.
 Defaulting to unpruned grid for atomic number  82.
 Defaulting to unpruned grid for atomic number  82.
 Defaulting to unpruned grid for atomic number  82.
 Defaulting to unpruned grid for atomic number  82.
 Inv3:  Mode=1 IEnd=    48072027.
 Iteration    1 A*A^-1 deviation from unit magnitude is 3.22D-15 for   2006.
 Iteration    1 A*A^-1 deviation from orthogonality  is 3.22D-15 for   2772    517.
 Iteration    1 A^-1*A deviation from unit magnitude is 3.22D-15 for   1632.
 Iteration    1 A^-1*A deviation from orthogonality  is 5.07D-13 for   2895   2860.
 Error on total polarization charges =  0.01724
 SCF Done:  E(RPBE-PBE) =  -1022.97276672     A.U. after   10 cycles
            NFock= 10  Conv=0.57D-08     -V/T= 2.0271
   1 Symmetry operations used in ECPInt.
 ECPInt:  NShTT=   23436 NPrTT=  156951 LenC2=   20724 LenP2D=   74635.
 LDataN:  DoStor=T MaxTD1= 7 Len=  274
 D1PCM: PCM CHGder 1st derivatives, ID1Alg=3 FixD1E=F DoIter=F DoCFld=F I1PDM=0.
 Calling FoFJK, ICntrl=      2527 FMM=F ISym2X=0 I1Cent= 0 IOpClX= 0 NMat=1 NMatS=1 NMatT=0.
 Defaulting to unpruned grid for atomic number  82.
 Defaulting to unpruned grid for atomic number  82.
 Defaulting to unpruned grid for atomic number  82.
 Defaulting to unpruned grid for atomic number  82.
 ***** Axes restored to original set *****
 -------------------------------------------------------------------
 Center     Atomic                   Forces (Hartrees/Bohr)
 Number     Number              X              Y              Z
 -------------------------------------------------------------------
      1       82          -0.001195612    0.001268461    0.000955928
      2       35          -0.000101411    0.000003951    0.000107607
      3       35           0.000071635    0.000180834   -0.000127194
      4        8           0.003485254   -0.004450799   -0.001183925
      5        6           0.001199117   -0.000976454    0.000116017
      6        1           0.000543159    0.004536715    0.001299008
      7        7          -0.004192955   -0.000473410    0.000739871
      8        6           0.001284382    0.003194435    0.001008542
      9        6           0.002719667   -0.002846609   -0.001311496
     10        1           0.002209388    0.003599145    0.000744842
     11        1          -0.001930113   -0.001422112    0.003580517
     12        1          -0.003278345    0.000796844   -0.002806361
     13        1          -0.001140210   -0.002285090    0.003569076
     14        1          -0.003396191    0.000291132   -0.002528727
     15        1           0.003629518   -0.002028654   -0.001801276
     16        8           0.003517856   -0.003382289   -0.003529214
     17        6          -0.000036247   -0.000268515   -0.000431336
     18        1          -0.004159656   -0.001063046    0.001575724
     19        7           0.000270477    0.003986325    0.000933999
     20        6          -0.003093162   -0.001729174    0.000496862
     21        6           0.002771092   -0.002061235   -0.002074845
     22        1          -0.003399268   -0.002485808    0.000559618
     23        1          -0.001151802    0.003636366   -0.001989699
     24        1           0.001647771    0.001242056    0.003830286
     25        1          -0.000675839    0.003784926   -0.001856113
     26        1           0.002415945    0.000741528    0.003573507
     27        1           0.002058045   -0.003252288   -0.003043323
     28        8          -0.004080640    0.001203619   -0.004746137
     29        6          -0.000069403   -0.000841418    0.000396619
     30        1           0.000780245   -0.004089034    0.002022131
     31        7           0.002100741    0.002826714    0.001860874
     32        6           0.000059066   -0.002829983    0.000984368
     33        6          -0.002230610    0.000615813   -0.003133980
     34        1          -0.000191071   -0.004163830    0.000768134
     35        1          -0.001364191    0.002233595    0.003311449
     36        1           0.003975871    0.001233916   -0.000677176
     37        1          -0.001447337    0.002067791    0.002467182
     38        1           0.003208322    0.001354053   -0.000660117
     39        1          -0.002192932   -0.000466042   -0.003071693
     40        8           0.005273967    0.001925248    0.000094553
     41        6           0.001316030    0.000646452   -0.000367849
     42        1          -0.003522564    0.000010929   -0.003258420
     43        7          -0.002226575   -0.000991707    0.003683908
     44        6          -0.001506461    0.000576892   -0.002103352
     45        6           0.003993600    0.000390905   -0.000330210
     46        1          -0.001645390    0.000446253   -0.003947483
     47        1          -0.001667761    0.002908206    0.002702792
     48        1          -0.001085936   -0.003899715    0.001667464
     49        1           0.000311444    0.002627184    0.001417157
     50        1          -0.000889649   -0.002190123    0.001726816
     51        1           0.003028740   -0.000132954   -0.001214929
 -------------------------------------------------------------------
 Cartesian Forces:  Max     0.005273967 RMS     0.002322255

 GradGradGradGradGradGradGradGradGradGradGradGradGradGradGradGradGradGrad
 Berny optimization.
 Search for a local minimum.
 Step number   2 out of a maximum of  163
 All quantities printed in internal units (Hartrees-Bohrs-Radians)
 Update second derivatives using D2CorN and points    1    2
 DE= -1.31D-03 DEPred=-1.36D-03 R= 9.64D-01
 TightC=F SS=  1.41D+00  RLast= 3.00D-01 DXNew= 5.0454D-01 8.9955D-01
 Trust test= 9.64D-01 RLast= 3.00D-01 DXMaxT set to 5.05D-01
 ITU=  1  0
     Eigenvalues ---   -0.00245  -0.00233  -0.00189  -0.00181  -0.00172
     Eigenvalues ---   -0.00156  -0.00136  -0.00126  -0.00044  -0.00039
     Eigenvalues ---   -0.00034  -0.00027  -0.00015  -0.00010   0.00002
     Eigenvalues ---    0.00014   0.00025   0.00038   0.00053   0.00070
     Eigenvalues ---    0.00081   0.00104   0.00120   0.00149   0.00153
     Eigenvalues ---    0.00206   0.00287   0.00331   0.00401   0.00576
     Eigenvalues ---    0.00692   0.00773   0.00800   0.00819   0.00919
     Eigenvalues ---    0.00995   0.01026   0.01061   0.01116   0.01125
     Eigenvalues ---    0.01152   0.01230   0.01325   0.01442   0.01579
     Eigenvalues ---    0.01632   0.01923   0.02515   0.03656   0.05500
     Eigenvalues ---    0.05522   0.05547   0.05604   0.06186   0.06197
     Eigenvalues ---    0.06225   0.06250   0.06304   0.06365   0.06375
     Eigenvalues ---    0.06379   0.06419   0.07272   0.07297   0.07333
     Eigenvalues ---    0.07383   0.07571   0.08759   0.08805   0.08819
     Eigenvalues ---    0.08990   0.09014   0.09300   0.09416   0.09649
[...]
 ,-0.00011429,0.00431749,0.00060363,0.00057640,0.00070500,-0.02597452,-
 0.25642296,0.09432277,0.00066916,0.00144825,-0.00187511,-0.00148136,-0
 .01748526,0.00888721,0.03268636,0.27265201,-0.00016041,-0.00015673,-0.
 00003843,0.00003466,-0.00000213,-0.00003251,0.00004373,-0.00000205,0.0
 0002163,-0.00001184,0.00002566,-0.00000785,0.00000826,-0.00001373,-0.0
 0000471,-0.00000016,0.00000448,0.00000364,-0.00002084,0.00001096,0.000
 00255,0.00000811,-0.00000119,-0.00000582,0.00001184,-0.00000226,-0.000
 00321,-0.00000087,0.00000267,0.00000155,-0.00000070,-0.00000061,0.0000
 0179,-0.00000195,0.00000031,-0.00000050,0.00003611,0.00001711,-0.00001
 824,-0.00000375,0.00000222,0.00000074,-0.00001274,-0.00002469,0.000018
 89,-0.00001723,0.00009402,0.00003477,0.00005073,-0.00006403,-0.0000503
 5,-0.00000831,0.00000237,0.00000468,-0.00000353,0.00003376,0.00001425,
 -0.00000586,-0.00000221,0.00000181,0.00000878,-0.00000191,-0.00000393,
 -0.00000072,-0.00000078,0.00000006,-0.00000173,0.00000255,0.00000056,-
 0.00000134,0.00000209,0.00000267,0.00000068,0.00000194,-0.00000089,0.0
 0000208,0.00000119,0.00000114,-0.00000141,-0.00000396,-0.00000149,0.00
 004846,0.00001928,0.00003960,-0.00003196,0.00000705,-0.00003420,-0.000
 00033,-0.00000494,0.00000106,0.00001481,0.00001117,0.00001294,0.000001
 91,-0.00000378,0.00000283,-0.00000301,0.00000403,-0.00000347,-0.000000
 52,-0.00000059,-0.00000017,0.00000109,-0.00000009,0.00000188,0.0000018
 8,0.00000007,0.00000115,-0.00000041,0.00000153,0.00000022,0.00000084,0
 .00000142,-0.00000014,-0.00000072,-0.00000203,0.00000009,0.00056893,-0
 .00036012,-0.00005149,0.00043398,0.00150282,0.00077298,-0.00015542,0.0
 0033931,0.00027427,0.00212924,0.00098960,-0.00207505,-0.00051265,-0.00
 120684,0.00064884,0.01083248,0.09358552,-0.08410584,0.00382631,0.02312
 025,-0.00815277,-0.00191377,-0.01575551,0.00642198,-0.01569425,-0.1024
 8838,0.08607704,-0.00120154,-0.00050240,0.00063173,0.00022771,-0.00001
 207,-0.00022193,0.00017118,-0.00021870,0.00000814,-0.00008703,0.000137
 72,-0.00003412,0.00009971,-0.00010419,0.00000936,-0.00000878,0.0000083
 7,0.00001619,-0.00009602,-0.00002221,-0.00001787,0.00006173,0.00005574
 ,-0.00008541,0.00002562,-0.00003538,0.00000017,0.00000129,-0.00000226,
 0.00000679,0.00001687,0.00000386,0.00001732,-0.00000799,0.00000650,-0.
 00000711,-0.00002470,0.00009149,0.00000021,-0.00001478,0.00000059,0.00
 000824,0.00001287,-0.00005087,0.00002978,-0.00218023,0.00071278,0.0005
 9717,0.00166655,-0.00113872,-0.00133906,-0.00026348,0.00009044,0.00003
 382,-0.00010418,0.00108374,0.00051102,-0.00023496,-0.00004112,0.000087
 36,0.00029157,-0.00008991,-0.00005672,-0.00002694,-0.00002784,-0.00000
 495,-0.00003934,0.00006729,0.00001229,-0.00005668,0.00007476,0.0000825
 0,0.00002962,0.00005907,-0.00001753,0.00007705,0.00002751,0.00001597,-
 0.00005964,-0.00008117,0.00000969,0.00024382,0.00005820,0.00014945,-0.
 00019653,0.00000884,-0.00017761,0.00001327,-0.00000246,0.00000292,0.00
 007879,0.00005899,0.00006111,0.00000879,-0.00002064,0.00001003,-0.0000
 1802,0.00001983,-0.00002226,-0.00000170,-0.00000249,0.00000006,0.00000
 478,-0.00000046,0.00001012,0.00001061,0.00000043,0.00000660,-0.0000045
 4,0.00000606,-0.00000006,0.00000583,0.00000674,-0.00000140,-0.00001013
 ,-0.00001402,0.00000376,0.00172920,0.00001342,-0.00087531,-0.00142865,
 -0.00096645,0.00174896,-0.00039681,0.00084785,-0.00006921,-0.00168705,
 -0.01686069,-0.01328731,-0.04355551,0.01648216,0.00729414,0.00163110,-
 0.00066067,-0.00106486,-0.00025475,0.00038676,-0.00000700,-0.00007538,
 0.00040680,0.00049590,0.00005038,0.00011773,0.00013887,0.04596454,-0.0
 0042661,0.00058092,0.00040488,0.00002960,0.00001542,0.00001327,-0.0000
 1132,-0.00001651,0.00007117,0.00005254,-0.00002259,-0.00005957,-0.0001
 1132,-0.00006215,0.00009186,0.00000012,-0.00000153,0.00001237,0.000064
 56,0.00007268,-0.00008495,-0.00007991,0.00001427,0.00013556,0.00003554
 ,-0.00004167,0.00000444,0.00000365,-0.00000334,0.00000785,0.00002774,-
 0.00000624,0.00001428,-0.00000771,0.00000575,-0.00001512,0.00016729,-0
 .00005219,0.00001728,-0.00000825,0.00002427,-0.00004210,-0.00001901,0.
 00001032,0.00000683,-0.00137749,-0.00002731,0.00054465,0.00220435,-0.0
 0375046,-0.00234974,-0.00043590,0.00020798,0.00017303,-0.00002399,0.00
 176568,0.00064014,-0.00029365,-0.00001116,0.00012044,0.00039866,-0.000
 10534,-0.00018369,-0.00003119,-0.00005482,-0.00001265,-0.00007492,0.00
 010689,0.00003441,-0.00005763,0.00009554,0.00010863,0.00004660,0.00008
 545,-0.00002288,0.00010708,0.00005515,0.00003563,-0.00013619,-0.000127
 43,0.00002472,0.00009325,-0.00006483,-0.00004229,-0.00006558,-0.000013
 76,-0.00007162,0.00000708,0.00000278,0.00000366,0.00001369,0.00001430,
 0.00001191,0.00000040,-0.00000453,-0.00000305,-0.00001099,0.00000383,-
 0.00000757,0.00000103,-0.00000117,0.00000059,0.00000167,0.00000038,0.0
 0000363,0.00000284,0.00000009,0.00000154,-0.00000559,-0.00000157,-0.00
 000193,0.00000391,0.,-0.00000014,-0.00000857,-0.00000374,0.00000770,-0
 .00046568,-0.00024060,-0.00043393,0.00095341,0.00044274,0.00137140,0.0
 0013804,-0.00060371,0.00000930,-0.00240061,0.00821372,-0.00043225,0.01
 544880,-0.25759379,-0.09460186,-0.00021852,0.00034638,0.00015858,-0.00
 005136,0.00006630,0.00000765,-0.00036135,-0.00040822,-0.00031418,0.000
 19174,-0.00017920,0.00015816,-0.01520986,0.27009047,0.00069605,0.00017
 156,-0.00074750,-0.00013429,0.00002937,0.00012683,-0.00008550,0.000039
 61,-0.00000547,-0.00001767,-0.00001065,0.00003519,0.00007623,0.0000137
 6,-0.00003843,-0.00000152,-0.00000517,-0.00001225,-0.00004779,-0.00005
 272,0.00004117,0.00018508,0.00006089,-0.00009457,-0.00001932,0.0000227
 6,0.00000824,-0.00000240,-0.00000116,-0.00000224,-0.00000546,0.0000102
 7,-0.00000646,0.00000590,-0.00000255,0.00000636,-0.00026510,0.00019709
 ,-0.00008593,-0.00000585,-0.00004747,0.00005184,0.00002179,-0.00003469
 ,-0.00001547,0.00026199,-0.00096150,-0.00132701,-0.00078013,0.00014573
 ,0.00048123,0.00012023,0.00006754,-0.00014463,0.00013131,-0.00044183,-
 0.00014073,0.00007647,0.00000866,-0.00003523,-0.00007398,-0.00002844,0
 .00010359,0.00001089,0.00002100,0.00000237,0.00003454,-0.00003538,-0.0
 0002687,-0.00000049,-0.00001717,-0.00002135,-0.00001666,-0.00001522,0.
 00001202,-0.00001673,-0.00002116,-0.00001486,0.00002707,0.00003033,-0.
 00001403,-0.00002086,0.00001089,-0.00002521,0.00003890,0.00000780,0.00
 003380,-0.00000057,0.00000275,0.00000226,-0.00001620,-0.00001346,-0.00
 000893,-0.00000127,0.00000409,-0.00000031,0.00000271,-0.00000267,0.000
 00823,-0.00000015,0.00000072,-0.00000016,-0.00000043,-0.00000052,-0.00
 000207,-0.00000260,0.00000022,-0.00000248,0.00000109,-0.00000129,-0.00
 000007,-0.00000125,-0.00000142,0.00000068,0.00000398,0.00000284,-0.000
 00220,0.00355868,0.00068504,0.00041670,-0.00635415,-0.00344692,0.00311
 631,-0.00041012,0.00153092,-0.00024689,-0.00334056,-0.02270428,-0.0259
 6814,0.00709602,-0.08925244,-0.08031633,0.00193811,-0.00039224,-0.0006
 0455,-0.00019387,0.00013224,-0.00004512,-0.00040080,0.00006716,0.00040
 128,-0.00040223,-0.00011795,0.00002965,-0.00105886,0.10285378,0.098430
 78,0.00047298,0.00073523,-0.00039486,-0.00012613,0.00001834,0.00013085
 ,-0.00031710,-0.00004875,-0.00013680,0.00009099,-0.00011361,0.00002920
 ,-0.00008475,0.00002970,0.00003928,0.00000534,-0.00000720,-0.00001149,
 0.00003982,0.00000240,-0.00000440,-0.00000246,-0.00001615,-0.00000768,
 -0.00000566,0.00001391,0.00000077,-0.00000121,-0.00000053,-0.00000017,
 0.00000190,-0.00000122,-0.00000351,0.00000370,-0.00000270,0.00000091,-
 0.00000145,0.00000672,0.00000339,0.00000525,-0.00000085,0.00000151,-0.
 00000818,-0.00000088,0.00000675,0.00014069,-0.00009414,-0.00005698,-0.
 00009561,0.00011310,0.00010482,0.00002153,-0.00000171,-0.00000566,0.00
 000499,-0.00007724,-0.00003595,0.00001470,0.00000375,-0.00000515,-0.00
 002032,0.00000712,0.00000741,0.00000186,0.00000215,0.00000065,0.000003
 37,-0.00000523,-0.00000145,0.00000301,-0.00000556,-0.00000625,-0.00000
 188,-0.00000441,0.00000173,-0.00000539,-0.00000341,-0.00000235,0.00000
 159,0.00000707,0.00000260,-0.00009940,-0.00002347,-0.00007707,0.000061
 61,-0.00000951,0.00006645,0.00000746,0.00002320,0.00000350,-0.00003564
 ,-0.00003982,-0.00003093,-0.00000703,0.00000864,-0.00000792,0.00000899
 ,-0.00001022,0.00001083,0.00000126,0.00000179,0.00000124,-0.00000322,-
 0.00000061,-0.00000534,-0.00000493,-0.00000009,-0.00000354,0.00000103,
 -0.00000468,-0.00000049,-0.00000172,-0.00000439,0.00000069,0.00000191,
 0.00000563,-0.00000006,0.00201914,0.00046017,0.00226651,-0.00558889,-0
 .00111769,-0.00123051,0.00075945,-0.00078318,-0.00077794,0.00478567,0.
 01391556,-0.01776887,-0.08283623,-0.07441610,0.06678295,0.00070246,0.0
 0190885,-0.00103518,0.00014992,0.00010701,0.00013249,-0.00021873,-0.00
 004852,-0.00020520,0.00018856,-0.00053222,0.00026971,0.00029883,0.0028
 0013,-0.00131060,0.08567924,0.00054340,0.00008086,-0.00015351,-0.00012
 473,0.00001790,0.00014005,-0.00005991,0.00004659,-0.00003057,0.0000132
 2,-0.00004371,0.00002610,-0.00000003,0.00003788,-0.00001652,0.00000113
 ,-0.00000713,-0.00000980,0.00002262,-0.00002027,0.00001923,0.00001322,
 0.00002840,-0.00001009,-0.00002924,0.00002005,0.00000500,-0.00000007,-
 0.00000324,-0.00000349,-0.00000508,0.00000235,-0.00000833,0.00000572,-
 0.00000281,0.00000423,-0.00005615,0.00004476,-0.00001263,0.00000335,-0
 .00002063,0.00001615,-0.00000045,0.00002446,-0.00004428,0.00016834,-0.
 00149241,-0.00058678,-0.00080612,0.00075577,0.00066617,0.00013582,0.00
 002075,-0.00003933,0.00007288,-0.00044984,-0.00020031,0.00009125,0.000
 01127,-0.00003041,-0.00010715,0.00000294,0.00004257,0.00000951,0.00001
 454,0.00000404,0.00002318,-0.00003085,-0.00001229,0.00001614,-0.000028
 38,-0.00003120,-0.00001413,-0.00002242,0.00000786,-0.00002781,-0.00001
 565,-0.00001100,0.00002325,0.00002481,0.00000055,-0.00014084,-0.000052
 74,-0.00011181,0.00010203,-0.00001873,0.00010505,-0.00000259,0.0000097
 7,-0.00000481,-0.00004104,-0.00003110,-0.00003805,-0.00000548,0.000009
 90,-0.00000637,0.00000826,-0.00001161,0.00001195,0.00000055,0.00000226
 ,0.00000077,-0.00000321,-0.00000066,-0.00000564,-0.00000529,0.00000041
 ,-0.00000397,0.00000210,-0.00000373,-0.00000041,-0.00000263,-0.0000034
 3,0.00000035,0.00000287,0.00000609,-0.00000163,-0.00108549,-0.00015988
 ,-0.00043555,0.00174695,0.00006161,-0.00223789,0.00009788,0.00012653,-
 0.00018999,0.00083228,0.00230442,-0.00092762,-0.07082086,-0.16928772,0
 .11516195,-0.00035623,0.00141238,-0.00057358,0.00004228,0.00017471,-0.
 00019368,0.00008902,-0.00034639,0.00008124,0.00046899,-0.00021006,0.00
 027848,-0.01062023,-0.01444730,0.01711229,0.07683128,0.17618211,-0.000
 07807,-0.00021670,-0.00037501,0.00000410,0.00000012,-0.00000020,0.0001
 0975,-0.00001589,0.00004237,-0.00001743,0.00003964,-0.00000370,0.00001
 716,-0.00001045,-0.00002664,0.00000029,0.00000799,0.00000363,-0.000027
 37,0.00002333,0.00000816,0.00003548,-0.00001440,-0.00000315,0.00001765
 ,0.00000037,-0.00000375,-0.00000188,0.00000538,0.00000122,-0.00000614,
 -0.00000027,0.00000050,-0.00000254,0.00000015,0.00000097,0.00000328,-0
 .00002430,-0.00003286,-0.00001025,0.00000232,0.00000638,-0.00000408,-0
 .00005614,0.00002962,0.00003083,-0.00062660,-0.00022513,-0.00029526,0.
 00024310,0.00021477,0.00004001,0.00000323,-0.00001147,0.00002977,-0.00
 017203,-0.00007458,0.00003695,0.00000055,-0.00001408,-0.00003827,-0.00
 000537,0.00001301,0.00000276,0.00000580,0.00000153,0.00000875,-0.00001
 179,-0.00000495,0.00000618,-0.00001006,-0.00001100,-0.00000634,-0.0000
 0837,0.00000278,-0.00001075,-0.00000489,-0.00000256,0.00001125,0.00000
 440,-0.00000556,0.00010721,0.00005447,0.00008163,-0.00005356,0.0000168
 8,-0.00006426,0.00000124,-0.00000666,0.00000044,0.00003026,0.00002332,
 0.00002982,0.00000468,-0.00000733,0.00000596,-0.00000573,0.00000897,-0
 .00000536,-0.00000099,-0.00000141,-0.00000079,0.00000273,-0.00000004,0
 .00000391,0.00000333,0.00000005,0.00000223,-0.00000008,0.00000350,0.00
 000063,0.00000113,0.00000291,-0.00000014,-0.00000085,-0.00000406,-0.00
 000058,0.00122160,0.00066635,0.00013628,-0.00603538,0.00059086,0.00004
 414,0.00063391,-0.00041022,-0.00122586,0.00956877,0.01849631,-0.027640
 85,0.05872278,0.10823958,-0.13880514,0.00232064,0.00039223,0.00085210,
 0.00021396,-0.00029038,0.00020446,-0.00027457,0.00002724,0.00009768,-0
 .00075131,-0.00052641,0.00007318,-0.00455345,-0.00743482,0.00868812,-0
 .06192587,-0.12185288,0.16081705,0.00057595,-0.00062504,0.00054905,0.0
 0004243,0.00001161,-0.00005580,-0.00098284,0.00032675,-0.00021611,-0.0
 0011530,0.00020890,-0.00003734,0.00017013,-0.00007094,-0.00007819,-0.0
 0001043,0.00001423,0.00002040,-0.00007803,0.00000172,0.00001213,-0.000
 00235,0.00001333,0.00001332,0.00001166,-0.00002308,-0.00000811,0.00000
 161,0.00000125,-0.00000025,-0.00000741,0.00000278,0.00000544,-0.000006
 74,0.00000456,0.00000057,-0.00000846,-0.00001368,-0.00000463,-0.000007
 99,-0.00000597,0.00000213,0.00001469,-0.00001477,0.00000773,-0.0000025
 3,0.00000173,0.00002935,-0.00005548,0.00004908,0.00003616,-0.00000176,
 0.00000473,0.00000092,0.00000184,-0.00003492,-0.00000748,0.00001192,-0
 .00000788,-0.00000674,-0.00000789,-0.00000203,0.00000186,-0.00000038,0
 .00000230,0.00000070,0.00000164,-0.00000241,-0.00000108,0.00000153,-0.
 00000177,-0.00000194,-0.00000284,-0.00000195,0.00000011,-0.00000315,-0
 .00000069,0.00000038,0.00000849,0.00000232,-0.00001678,0.00005830,0.00
 013080,0.00002464,-0.00002638,-0.00009251,-0.00003017,-0.00006049,-0.0
 0006532,-0.00002494,0.00001219,0.00009018,0.00000054,0.00001100,-0.000
 01139,0.00002366,-0.00001849,0.00000957,-0.00002544,-0.00000241,-0.000
 00312,-0.00000218,0.00000499,0.00000220,0.00000900,0.00000897,0.000001
 38,0.00000573,-0.00000133,0.00001332,-0.00000011,0.00000294,0.00001002
 ,-0.00000143,-0.00000306,-0.00000968,-0.00000431,0.00173769,0.00008259
 ,0.00163604,-0.00218587,-0.00178887,0.00267515,-0.00013761,0.00014972,
 -0.00002606,-0.01679613,0.00089340,-0.00272428,-0.28092976,0.05486981,
 0.05097445,0.00021080,0.00141600,-0.00278052,-0.00069553,-0.00008976,0
 .00025415,-0.00003648,0.00005418,0.00018506,0.00014582,0.00009436,0.00
 009294,-0.00068636,-0.00090051,0.00070038,-0.00601131,0.00294723,0.000
 91372,0.30585017,-0.00151502,-0.00226232,0.00124781,0.00028170,-0.0000
 2119,-0.00032020,0.00036256,-0.00012731,-0.00002265,-0.00020034,0.0003
 8676,-0.00005122,0.00030337,-0.00017078,-0.00015916,-0.00001662,0.0000
 2649,0.00003313,-0.00017106,0.00001693,0.00002812,0.00001905,0.0000643
 6,-0.00000312,0.00002793,-0.00004457,-0.00001179,0.00000278,0.00000354
 ,0.00000082,-0.00001192,0.00000718,0.00001189,-0.00001338,0.00000937,-
 0.00000006,-0.00001154,0.00000932,-0.00001615,-0.00001794,-0.00000662,
 0.00000020,0.00000390,-0.00000911,0.00003033,-0.00047373,0.00000690,0.
 00021109,0.00008674,0.00004993,-0.00002854,-0.00002525,0.00005849,0.00
 002403,-0.00002790,0.00009370,0.00005059,-0.00001296,-0.00001660,0.000
 00246,0.00002217,-0.00000836,-0.00001181,-0.00000296,0.00000073,0.0000
 0089,-0.00000460,0.00000579,0.00000138,-0.00000264,0.00000515,0.000006
 52,-0.00000020,0.00000330,-0.00000363,0.00000463,0.00000182,0.00000346
 ,0.00001817,0.00001088,-0.00002306,0.00035026,0.00019513,0.00024701,-0
 .00027433,0.00000636,-0.00025150,0.00000889,-0.00005711,0.00001828,0.0
 0011819,0.00010581,0.00010329,0.00000885,-0.00003153,0.00002702,-0.000
 02572,0.00003021,-0.00003946,-0.00000223,-0.00000549,-0.00000156,0.000
 00912,0.00000093,0.00001668,0.00001688,0.00000066,0.00001218,-0.000003
 04,0.00001685,0.00000141,0.00000643,0.00001229,-0.00000146,-0.00000634
 ,-0.00002476,-0.00000930,-0.00122228,-0.00080864,-0.00054548,0.0019703
 8,0.00130358,0.00031666,-0.00025994,0.00003879,-0.00017737,-0.00355983
 ,-0.00085184,0.00056190,0.05704791,-0.05429179,-0.01175105,-0.00090160
 ,-0.00023884,-0.00065643,-0.00038184,0.00021444,-0.00018607,-0.0001608
 4,-0.00003785,-0.00000965,0.00005642,0.00014404,-0.00012146,0.02585115
 ,-0.00437617,-0.00562099,-0.01962768,0.00528717,0.00285240,-0.05764375
 ,0.05527395,0.00066058,0.00050511,0.00021837,-0.00001031,0.00001992,0.
 00001080,0.00052192,0.00033967,-0.00020870,-0.00002514,-0.00003235,-0.
 00001478,-0.00001096,0.00005669,0.00001772,0.00000133,-0.00000162,0.00
 000294,0.00001396,-0.00001221,-0.00001096,0.00000726,-0.00000357,0.000
 00997,-0.00000879,0.00000399,-0.00000303,0.00000010,-0.00000182,-0.000
 00039,0.00000013,-0.00000018,-0.00000096,0.00000144,-0.00000056,0.0000
 0132,-0.00001568,-0.00000082,-0.00000884,0.00000273,-0.00000742,0.0000
 0322,-0.00001884,0.00002660,-0.00001030,-0.00008609,-0.00019689,-0.000
 09066,-0.00009805,0.00016285,0.00009636,0.00001433,0.00001794,-0.00000
 125,-0.00000051,-0.00006340,-0.00002184,0.00000349,0.00000577,0.000000
 80,-0.00001415,0.00000110,0.00000837,0.00000108,0.00000314,0.00000103,
 0.00000344,-0.00000485,-0.00000193,0.00000173,-0.00000424,-0.00000468,
 -0.00000294,-0.00000374,0.00000036,-0.00000458,-0.00000427,-0.00000275
 ,0.00001260,0.00001418,0.00001846,-0.00010514,-0.00001978,-0.00009282,
 0.00008505,-0.00006395,0.00010917,-0.00004375,-0.00004978,-0.00003160,
 -0.00004364,0.00001915,-0.00004590,0.00000481,0.00000563,0.00000356,-0
 .00000041,-0.00000793,0.00000147,-0.00000188,0.00000015,-0.00000189,-0
 .00000132,0.00000047,-0.00000158,-0.00000143,0.00000093,-0.00000221,0.
 00000051,0.00000121,-0.00000055,-0.00000075,0.00000167,-0.00000056,0.0
 0000025,0.00000420,0.00000134,0.00248096,-0.00023070,-0.00045526,-0.00
 394930,-0.00035809,0.00141993,0.00024227,-0.00068127,0.00024778,-0.032
 17157,0.00599039,0.00263135,0.06026961,-0.01361463,-0.05615743,-0.0005
 6337,0.00137959,-0.00409097,-0.00125622,-0.00042189,-0.00027029,-0.000
 04679,0.00008815,-0.00000669,0.00018345,-0.00024155,0.00012260,0.01090
 240,-0.00093500,-0.00204116,0.01518799,-0.00589962,-0.00282495,-0.0521
 2183,0.01421363,0.06147802\\-0.00000340,-0.00000749,-0.00000860,-0.000
 00213,-0.00000099,0.00000276,-0.00000830,0.00000449,0.00000599,0.00003
 169,-0.00001758,-0.00000854,-0.00003245,-0.00004020,-0.00000293,0.0000
 0187,0.00003112,0.00000690,0.00000941,0.00006345,0.00001287,0.00000681
 ,-0.00001992,0.00001335,-0.00005625,-0.00006076,-0.00001480,0.00002186
 ,0.00003238,0.00000509,0.00000546,0.00001269,-0.00001279,0.00001324,-0
 .00000054,0.00001424,-0.00000257,-0.00001151,0.00001107,-0.00002980,0.
 00000701,-0.00001657,0.00001649,-0.00000680,-0.00000779,0.00016350,-0.
 00017467,-0.00014012,-0.00016885,0.00021496,0.00015695,-0.00001366,-0.
 00000957,0.00000042,-0.00000533,-0.00004880,-0.00001112,0.00005980,-0.
 00005754,0.00003013,0.00002066,0.00001357,-0.00001700,-0.00003880,-0.0
 0002442,0.00001201,-0.00001159,0.00002435,-0.00000138,0.00001537,0.000
 01268,0.00001915,-0.00000548,0.00006246,-0.00003474,-0.00001857,-0.000
 00461,-0.00003283,-0.00000338,0.00002356,0.00001686,-0.00010037,0.0000
 5261,-0.00014354,0.00016649,-0.00015506,0.00020055,-0.00002258,0.00006
 779,-0.00002955,-0.00012058,0.00015331,-0.00015433,0.00015640,-0.00018
 078,0.00010654,0.00009471,-0.00000252,0.00003686,0.00001031,-0.0000097
 2,-0.00000517,-0.00000354,0.00000083,0.00000605,-0.00001410,-0.0000102
 6,0.00001454,-0.00007061,0.00007040,0.00009560,0.00005457,0.00002193,-
 0.00000418,-0.00011054,0.00000031,-0.00015011,-0.00007941,-0.00003995,
 -0.00001840,0.00015044,0.00001281,0.00029451,-0.00009955,-0.00000505,-
 0.00010492,-0.00006255,0.00000353,-0.00031901,-0.00004119,0.00008792,0
 .00016484,-0.00000559,0.00001554,-0.00000375,0.00000519,-0.00000220,0.
 00000799,0.00000312,0.00000488,0.00001182,0.00000104,-0.00002454,0.000
 00995,0.00000046,-0.00004132,0.00000942,0.00001641,-0.00000843,0.00000
 314,0.00010586,-0.00002933,-0.00002742\\\@
 The archive entry for this job was punched.


 We make a living by what we get,
 we make a life by what we give.
                   -- Sir Winston Churchill
 Job cpu time:       0 days  2 hours 18 minutes 54.4 seconds.
 Elapsed time:       0 days  0 hours 34 minutes 44.3 seconds.
 File lengths (MBytes):  RWF=   1407 Int=      0 D2E=      0 Chk=     48 Scr=      1
 Normal termination of Gaussian 16 at Fri Oct 16 01:01:00 2020.
