 Entering Gaussian System, Link 0=g16
 Input=01-PbBr2_dmso_22750055.com
 Output=01-PbBr2_dmso_22750055.log
 Initial command:
 /cm/shared/uniol/software/gaussian/g16.c01/g16/l1.exe "/scratch/22750055_edba4025/Gau-24289.inp" -scrdir="/scratch/22750055_edba4025/"
 Entering Link 1 = /cm/shared/uniol/software/gaussian/g16.c01/g16/l1.exe PID=     24290.
  
 Copyright (c) 1988-2019, Gaussian, Inc.  All Rights Reserved.
  
 This is part of the Gaussian(R) 16 program.  It is based on
 the Gaussian(R) 09 system (copyright 2009, Gaussian, Inc.),
 the Gaussian(R) 03 system (copyright 2003, Gaussian, Inc.),
 the Gaussian(R) 98 system (copyright 1998, Gaussian, Inc.),
 the Gaussian(R) 94 system (copyright 1995, Gaussian, Inc.),
 the Gaussian 92(TM) system (copyright 1992, Gaussian, Inc.),
 the Gaussian 90(TM) system (copyright 1990, Gaussian, Inc.),
 the Gaussian 88(TM) system (copyright 1988, Gaussian, Inc.),
 the Gaussian 86(TM) system (copyright 1986, Carnegie Mellon
 University), and the Gaussian 82(TM) system (copyright 1983,
 Carnegie Mellon University). Gaussian is a federally registered
 trademark of Gaussian, Inc.
  
 This software contains proprietary and confidential information,
 including trade secrets, belonging to Gaussian, Inc.
  
 This software is provided under written license and may be
 used, copied, transmitted, or stored only in accord with that
 written license.
  
 The following legend is applicable only to US Government
 contracts under FAR:
  
                    RESTRICTED RIGHTS LEGEND
  
 Use, reproduction and disclosure by the US Government is
 subject to restrictions as set forth in subparagraphs (a)
 and (c) of the Commercial Computer Software - Restricted
 Rights clause in FAR 52.227-19.
  
 Gaussian, Inc.
 340 Quinnipiac St., Bldg. 40, Wallingford CT 06492
  
  
 ---------------------------------------------------------------
 Warning -- This program may not be used in any manner that
 competes with the business of Gaussian, Inc. or will provide
 assistance to any competitor of Gaussian, Inc.  The licensee
 of this program is prohibited from giving any competitor of
 Gaussian, Inc. access to this program.  By using this program,
 the user acknowledges that Gaussian, Inc. is engaged in the
 business of creating and licensing software in the field of
 computational chemistry and represents and warrants to the
 licensee that it is not a competitor of Gaussian, Inc. and that
 it will not use this program in any manner prohibited above.
 ---------------------------------------------------------------
  

 Cite this work as:
 Gaussian 16, Revision C.01,
 M. J. Frisch, G. W. Trucks, H. B. Schlegel, G. E. Scuseria, 
 M. A. Robb, J. R. Cheeseman, G. Scalmani, V. Barone, 
 G. A. Petersson, H. Nakatsuji, X. Li, M. Caricato, A. V. Marenich, 
 J. Bloino, B. G. Janesko, R. Gomperts, B. Mennucci, H. P. Hratchian, 
 J. V. Ortiz, A. F. Izmaylov, J. L. Sonnenberg, D. Williams-Young, 
 F. Ding, F. Lipparini, F. Egidi, J. Goings, B. Peng, A. Petrone, 
 T. Henderson, D. Ranasinghe, V. G. Zakrzewski, J. Gao, N. Rega, 
 G. Zheng, W. Liang, M. Hada, M. Ehara, K. Toyota, R. Fukuda, 
 J. Hasegawa, M. Ishida, T. Nakajima, Y. Honda, O. Kitao, H. Nakai, 
 T. Vreven, K. Throssell, J. A. Montgomery, Jr., J. E. Peralta, 
 F. Ogliaro, M. J. Bearpark, J. J. Heyd, E. N. Brothers, K. N. Kudin, 
 V. N. Staroverov, T. A. Keith, R. Kobayashi, J. Normand, 
 K. Raghavachari, A. P. Rendell, J. C. Burant, S. S. Iyengar, 
 J. Tomasi, M. Cossi, J. M. Millam, M. Klene, C. Adamo, R. Cammi, 
 J. W. Ochterski, R. L. Martin, K. Morokuma, O. Farkas, 
 J. B. Foresman, and D. J. Fox, Gaussian, Inc., Wallingford CT, 2019.
 
 ******************************************
 Gaussian 16:  ES64L-G16RevC.01  3-Jul-2019
                 6-Nov-2020 
 ******************************************
 %Chk=01-PbBr2_dmso
 %mem=16GB
 %NProcShared=4
 Will use up to    4 processors via shared memory.
 ----------------------------------------------------------------------
 # pbepbe/Gen pseudo=read Opt=Tight Int=UltraFine Freq EmpiricalDispers
 ion=GD3BJ SCRF=(Solvent=DMSO)
 ----------------------------------------------------------------------
 1/7=10,18=20,19=15,26=6,38=1/1,3;
 2/9=110,12=2,17=6,18=5,40=1/2;
 3/5=7,11=2,16=1,17=8,25=1,30=1,70=2201,71=1,72=21,74=1009,75=-5,124=41/1,2,3;
 4//1;
 5/5=2,38=5,53=21/2;
 6/7=2,8=2,9=2,10=2,28=1/1;
 7//1,2,3,16;
 1/7=10,18=20,19=15,26=6/3(2);
 2/9=110/2;
 99//99;
 2/9=110/2;
 3/5=7,6=1,11=2,16=1,17=8,25=1,30=1,70=2205,71=1,72=21,74=1009,75=-5,82=7,124=41/1,2,3;
 4/5=5,16=3,69=1/1;
 5/5=2,38=5,53=21/2;
 7//1,2,3,16;
 1/7=10,18=20,19=15,26=6/3(-5);
 2/9=110/2;
 6/7=2,8=2,9=2,10=2,19=2,28=1/1;
 99/9=1/99;
 --------------------------
 01-PbBr2_dmso_22739628.out
 --------------------------
 Symbolic Z-matrix:
 Charge =  0 Multiplicity = 1
 Pb                   -0.02724  -0.07381  -0.21154 
 Br                   -2.85643   0.57322  -1.65987 
 Br                    0.57704  -2.72859  -1.79055 
 O                    -0.46989   1.72677   1.35944 
 S                    -0.89272   3.23874   1.14117 
 C                    -2.71602   3.24634   1.24228 
 C                    -0.74174   3.59408  -0.64547 
 H                    -2.97793   2.9611    2.27734 
 H                     0.29164   3.30511  -0.92194 
 H                    -3.06414   4.27528   1.02813 
 H                    -0.92176   4.67695  -0.78511 
 H                    -3.10341   2.51854   0.50186 
 H                    -1.47426   2.97178  -1.1985 
 O                     1.83037  -0.28739   1.28386 
 S                     2.81379  -1.45215   1.7296 
 C                     1.80394  -2.96316   1.86483 
 C                     3.76232  -1.8966    0.23628 
 H                     1.00578  -2.72683   2.59041 
 H                     4.36995  -1.00974  -0.01985 
 H                     2.46933  -3.76755   2.23285 
 H                     4.41384  -2.75334   0.49422 
 H                     1.37006  -3.19459   0.87198 
 H                     3.04471  -2.15165  -0.57018 
 O                     1.68219   1.62193  -1.10276 
 S                     3.10643   1.75045  -0.42336 
 C                     2.83861   2.68455   1.12343 
 C                     3.9149    3.06064  -1.39996 
 H                     2.16199   2.04445   1.71925 
 H                     4.05939   2.64851  -2.41542 
 H                     3.81746   2.80828   1.62506 
 H                     4.89289   3.29283  -0.93773 
 H                     2.3797    3.66251   0.8904 
 H                     3.2574    3.95008  -1.42558 
 O                    -0.86886  -1.35682   1.658 
 S                    -2.31422  -1.9206    1.97598 
 C                    -2.92649  -2.67314   0.42947 
 C                    -3.41154  -0.46383   2.01989 
 H                    -2.21354  -3.47969   0.17769 
 H                    -3.02891   0.1787    2.83396 
 H                    -3.93246  -3.08848   0.63222 
 H                    -4.43688  -0.81285   2.24889 
 H                    -2.95457  -1.89899  -0.36407 
 H                    -3.36075   0.04775   1.03824 
 
 Add virtual bond connecting atoms O24        and H9         Dist= 4.14D+00.
 Add virtual bond connecting atoms H12        and Br2        Dist= 5.52D+00.
 Add virtual bond connecting atoms H13        and Br2        Dist= 5.30D+00.
 Add virtual bond connecting atoms H42        and Br2        Dist= 5.28D+00.
 Add virtual bond connecting atoms H43        and Br2        Dist= 5.28D+00.
 Add virtual bond connecting atoms H22        and Br3        Dist= 5.32D+00.
 Add virtual bond connecting atoms H23        and Br3        Dist= 5.32D+00.

 GradGradGradGradGradGradGradGradGradGradGradGradGradGradGradGradGradGrad
 Berny optimization.
 Initialization pass.
                           ----------------------------
                           !    Initial Parameters    !
                           ! (Angstroms and Degrees)  !
 --------------------------                            --------------------------
 ! Name  Definition              Value          Derivative Info.                !
 --------------------------------------------------------------------------------
 ! R1    R(1,4)                  2.4302         estimate D2E/DX2                !
 ! R2    R(1,14)                 2.3943         estimate D2E/DX2                !
 ! R3    R(1,34)                 2.4186         estimate D2E/DX2                !
 ! R4    R(2,12)                 2.9186         estimate D2E/DX2                !
 ! R5    R(2,13)                 2.8065         estimate D2E/DX2                !
 ! R6    R(2,42)                 2.7929         estimate D2E/DX2                !
 ! R7    R(2,43)                 2.7947         estimate D2E/DX2                !
 ! R8    R(3,22)                 2.8169         estimate D2E/DX2                !
 ! R9    R(3,23)                 2.8127         estimate D2E/DX2                !
 ! R10   R(4,5)                  1.5851         estimate D2E/DX2                !
 ! R11   R(5,6)                  1.8261         estimate D2E/DX2                !
 ! R12   R(5,7)                  1.8279         estimate D2E/DX2                !
 ! R13   R(6,8)                  1.1051         estimate D2E/DX2                !
 ! R14   R(6,10)                 1.1071         estimate D2E/DX2                !
 ! R15   R(6,12)                 1.1081         estimate D2E/DX2                !
 ! R16   R(7,9)                  1.1081         estimate D2E/DX2                !
 ! R17   R(7,11)                 1.1066         estimate D2E/DX2                !
 ! R18   R(7,13)                 1.1089         estimate D2E/DX2                !
 ! R19   R(9,24)                 2.1908         estimate D2E/DX2                !
 ! R20   R(14,15)                1.5882         estimate D2E/DX2                !
 ! R21   R(15,16)                1.8224         estimate D2E/DX2                !
 ! R22   R(15,17)                1.8241         estimate D2E/DX2                !
 ! R23   R(16,18)                1.1043         estimate D2E/DX2                !
 ! R24   R(16,20)                1.1069         estimate D2E/DX2                !
 ! R25   R(16,22)                1.108          estimate D2E/DX2                !
 ! R26   R(17,19)                1.1051         estimate D2E/DX2                !
 ! R27   R(17,21)                1.1068         estimate D2E/DX2                !
 ! R28   R(17,23)                1.1092         estimate D2E/DX2                !
 ! R29   R(24,25)                1.5832         estimate D2E/DX2                !
 ! R30   R(25,26)                1.8267         estimate D2E/DX2                !
 ! R31   R(25,27)                1.8232         estimate D2E/DX2                !
 ! R32   R(26,28)                1.1057         estimate D2E/DX2                !
 ! R33   R(26,30)                1.1068         estimate D2E/DX2                !
 ! R34   R(26,32)                1.1051         estimate D2E/DX2                !
 ! R35   R(27,29)                1.1054         estimate D2E/DX2                !
 ! R36   R(27,31)                1.1064         estimate D2E/DX2                !
 ! R37   R(27,33)                1.1064         estimate D2E/DX2                !
 ! R38   R(34,35)                1.5837         estimate D2E/DX2                !
 ! R39   R(35,36)                1.8256         estimate D2E/DX2                !
 ! R40   R(35,37)                1.8243         estimate D2E/DX2                !
 ! R41   R(36,38)                1.1055         estimate D2E/DX2                !
 ! R42   R(36,40)                1.1071         estimate D2E/DX2                !
 ! R43   R(36,42)                1.109          estimate D2E/DX2                !
 ! R44   R(37,39)                1.1054         estimate D2E/DX2                !
 ! R45   R(37,41)                1.1071         estimate D2E/DX2                !
 ! R46   R(37,43)                1.1081         estimate D2E/DX2                !
 ! A1    A(4,1,14)              78.6772         estimate D2E/DX2                !
 ! A2    A(4,1,34)              80.2105         estimate D2E/DX2                !
 ! A3    A(14,1,34)             74.9225         estimate D2E/DX2                !
 ! A4    A(12,2,13)             49.4789         estimate D2E/DX2                !
 ! A5    A(12,2,42)            104.0854         estimate D2E/DX2                !
 ! A6    A(12,2,43)             52.7696         estimate D2E/DX2                !
 ! A7    A(13,2,42)            134.2298         estimate D2E/DX2                !
 ! A8    A(13,2,43)             95.2128         estimate D2E/DX2                !
 ! A9    A(42,2,43)             51.6331         estimate D2E/DX2                !
 ! A10   A(22,3,23)             51.4543         estimate D2E/DX2                !
 ! A11   A(1,4,5)              131.7828         estimate D2E/DX2                !
 ! A12   A(4,5,6)              105.2297         estimate D2E/DX2                !
 ! A13   A(4,5,7)              107.3373         estimate D2E/DX2                !
 ! A14   A(6,5,7)               97.8038         estimate D2E/DX2                !
 ! A15   A(5,6,8)              106.7032         estimate D2E/DX2                !
 ! A16   A(5,6,10)             107.8848         estimate D2E/DX2                !
 ! A17   A(5,6,12)             108.018          estimate D2E/DX2                !
 ! A18   A(8,6,10)             110.2745         estimate D2E/DX2                !
 ! A19   A(8,6,12)             111.9274         estimate D2E/DX2                !
 ! A20   A(10,6,12)            111.791          estimate D2E/DX2                !
 ! A21   A(5,7,9)              105.6768         estimate D2E/DX2                !
 ! A22   A(5,7,11)             107.4661         estimate D2E/DX2                !
 ! A23   A(5,7,13)             108.8933         estimate D2E/DX2                !
 ! A24   A(9,7,11)             112.051          estimate D2E/DX2                !
 ! A25   A(9,7,13)             110.1982         estimate D2E/DX2                !
 ! A26   A(11,7,13)            112.257          estimate D2E/DX2                !
 ! A27   A(7,9,24)             144.3813         estimate D2E/DX2                !
 ! A28   A(2,12,6)             154.5628         estimate D2E/DX2                !
 ! A29   A(2,13,7)             152.4896         estimate D2E/DX2                !
 ! A30   A(1,14,15)            136.1464         estimate D2E/DX2                !
 ! A31   A(14,15,16)           106.6048         estimate D2E/DX2                !
 ! A32   A(14,15,17)           105.7186         estimate D2E/DX2                !
 ! A33   A(16,15,17)            98.4458         estimate D2E/DX2                !
 ! A34   A(15,16,18)           105.7734         estimate D2E/DX2                !
 ! A35   A(15,16,20)           107.1034         estimate D2E/DX2                !
 ! A36   A(15,16,22)           108.8862         estimate D2E/DX2                !
 ! A37   A(18,16,20)           111.8121         estimate D2E/DX2                !
 ! A38   A(18,16,22)           110.5157         estimate D2E/DX2                !
 ! A39   A(20,16,22)           112.4296         estimate D2E/DX2                !
 ! A40   A(15,17,19)           106.2671         estimate D2E/DX2                !
 ! A41   A(15,17,21)           107.6931         estimate D2E/DX2                !
 ! A42   A(15,17,23)           108.3501         estimate D2E/DX2                !
 ! A43   A(19,17,21)           110.5814         estimate D2E/DX2                !
 ! A44   A(19,17,23)           111.8218         estimate D2E/DX2                !
 ! A45   A(21,17,23)           111.8561         estimate D2E/DX2                !
 ! A46   A(3,22,16)            157.3215         estimate D2E/DX2                !
 ! A47   A(3,23,17)            158.463          estimate D2E/DX2                !
 ! A48   A(9,24,25)            118.243          estimate D2E/DX2                !
 ! A49   A(24,25,26)           105.8422         estimate D2E/DX2                !
 ! A50   A(24,25,27)           103.1431         estimate D2E/DX2                !
 ! A51   A(26,25,27)            98.6915         estimate D2E/DX2                !
 ! A52   A(25,26,28)           104.4765         estimate D2E/DX2                !
 ! A53   A(25,26,30)           108.1356         estimate D2E/DX2                !
 ! A54   A(25,26,32)           109.5633         estimate D2E/DX2                !
 ! A55   A(28,26,30)           111.2033         estimate D2E/DX2                !
 ! A56   A(28,26,32)           111.8275         estimate D2E/DX2                !
 ! A57   A(30,26,32)           111.3386         estimate D2E/DX2                !
 ! A58   A(25,27,29)           106.3863         estimate D2E/DX2                !
 ! A59   A(25,27,31)           108.6032         estimate D2E/DX2                !
 ! A60   A(25,27,33)           109.0624         estimate D2E/DX2                !
 ! A61   A(29,27,31)           110.2735         estimate D2E/DX2                !
 ! A62   A(29,27,33)           110.8633         estimate D2E/DX2                !
 ! A63   A(31,27,33)           111.4867         estimate D2E/DX2                !
 ! A64   A(1,34,35)            131.4249         estimate D2E/DX2                !
 ! A65   A(34,35,36)           106.4239         estimate D2E/DX2                !
 ! A66   A(34,35,37)           105.6357         estimate D2E/DX2                !
 ! A67   A(36,35,37)            98.5007         estimate D2E/DX2                !
 ! A68   A(35,36,38)           106.1036         estimate D2E/DX2                !
 ! A69   A(35,36,40)           107.7136         estimate D2E/DX2                !
 ! A70   A(35,36,42)           109.0809         estimate D2E/DX2                !
 ! A71   A(38,36,40)           110.7322         estimate D2E/DX2                !
 ! A72   A(38,36,42)           111.2632         estimate D2E/DX2                !
 ! A73   A(40,36,42)           111.7122         estimate D2E/DX2                !
 ! A74   A(35,37,39)           105.8826         estimate D2E/DX2                !
 ! A75   A(35,37,41)           108.0786         estimate D2E/DX2                !
 ! A76   A(35,37,43)           108.6482         estimate D2E/DX2                !
 ! A77   A(39,37,41)           110.5793         estimate D2E/DX2                !
 ! A78   A(39,37,43)           111.6031         estimate D2E/DX2                !
 ! A79   A(41,37,43)           111.7924         estimate D2E/DX2                !
 ! A80   A(2,42,36)            161.6259         estimate D2E/DX2                !
 ! A81   A(2,43,37)            161.8663         estimate D2E/DX2                !
 ! D1    D(14,1,4,5)           134.1059         estimate D2E/DX2                !
 ! D2    D(34,1,4,5)          -149.4657         estimate D2E/DX2                !
 ! D3    D(4,1,14,15)          155.1232         estimate D2E/DX2                !
 ! D4    D(34,1,14,15)          72.3411         estimate D2E/DX2                !
 ! D5    D(4,1,34,35)           96.2333         estimate D2E/DX2                !
 ! D6    D(14,1,34,35)         177.0347         estimate D2E/DX2                !
 ! D7    D(13,2,12,6)          -38.2026         estimate D2E/DX2                !
 ! D8    D(42,2,12,6)           98.8177         estimate D2E/DX2                !
 ! D9    D(43,2,12,6)          104.8886         estimate D2E/DX2                !
 ! D10   D(12,2,13,7)           71.5266         estimate D2E/DX2                !
 ! D11   D(42,2,13,7)            4.1854         estimate D2E/DX2                !
 ! D12   D(43,2,13,7)           42.8318         estimate D2E/DX2                !
 ! D13   D(12,2,42,36)         -16.2488         estimate D2E/DX2                !
 ! D14   D(13,2,42,36)          30.0737         estimate D2E/DX2                !
 ! D15   D(43,2,42,36)         -22.4142         estimate D2E/DX2                !
 ! D16   D(12,2,43,37)        -153.9677         estimate D2E/DX2                !
 ! D17   D(13,2,43,37)        -126.6832         estimate D2E/DX2                !
 ! D18   D(42,2,43,37)          18.5146         estimate D2E/DX2                !
 ! D19   D(23,3,22,16)          48.391          estimate D2E/DX2                !
 ! D20   D(22,3,23,17)         -28.7787         estimate D2E/DX2                !
 ! D21   D(1,4,5,6)             93.6422         estimate D2E/DX2                !
 ! D22   D(1,4,5,7)             -9.797          estimate D2E/DX2                !
 ! D23   D(4,5,6,8)             65.213          estimate D2E/DX2                !
 ! D24   D(4,5,6,10)          -176.2982         estimate D2E/DX2                !
 ! D25   D(4,5,6,12)           -55.2906         estimate D2E/DX2                !
 ! D26   D(7,5,6,8)            175.6417         estimate D2E/DX2                !
 ! D27   D(7,5,6,10)           -65.8695         estimate D2E/DX2                !
 ! D28   D(7,5,6,12)            55.1381         estimate D2E/DX2                !
 ! D29   D(4,5,7,9)            -53.7306         estimate D2E/DX2                !
 ! D30   D(4,5,7,11)          -173.5383         estimate D2E/DX2                !
 ! D31   D(4,5,7,13)            64.634          estimate D2E/DX2                !
 ! D32   D(6,5,7,9)           -162.4268         estimate D2E/DX2                !
 ! D33   D(6,5,7,11)            77.7655         estimate D2E/DX2                !
 ! D34   D(6,5,7,13)           -44.0621         estimate D2E/DX2                !
 ! D35   D(5,6,12,2)            -3.7028         estimate D2E/DX2                !
 ! D36   D(8,6,12,2)          -120.8799         estimate D2E/DX2                !
 ! D37   D(10,6,12,2)          114.8411         estimate D2E/DX2                !
 ! D38   D(5,7,9,24)            65.1193         estimate D2E/DX2                !
 ! D39   D(11,7,9,24)         -178.1355         estimate D2E/DX2                !
 ! D40   D(13,7,9,24)          -52.3713         estimate D2E/DX2                !
 ! D41   D(5,7,13,2)           -40.2947         estimate D2E/DX2                !
 ! D42   D(9,7,13,2)            75.187          estimate D2E/DX2                !
 ! D43   D(11,7,13,2)         -159.1655         estimate D2E/DX2                !
 ! D44   D(7,9,24,25)         -129.4554         estimate D2E/DX2                !
 ! D45   D(1,14,15,16)         -39.0389         estimate D2E/DX2                !
 ! D46   D(1,14,15,17)          65.0334         estimate D2E/DX2                !
 ! D47   D(14,15,16,18)        -57.3321         estimate D2E/DX2                !
 ! D48   D(14,15,16,20)       -176.7309         estimate D2E/DX2                !
 ! D49   D(14,15,16,22)         61.4536         estimate D2E/DX2                !
 ! D50   D(17,15,16,18)       -166.6058         estimate D2E/DX2                !
 ! D51   D(17,15,16,20)         73.9954         estimate D2E/DX2                !
 ! D52   D(17,15,16,22)        -47.8201         estimate D2E/DX2                !
 ! D53   D(14,15,17,19)         65.1041         estimate D2E/DX2                !
 ! D54   D(14,15,17,21)       -176.376          estimate D2E/DX2                !
 ! D55   D(14,15,17,23)        -55.2109         estimate D2E/DX2                !
 ! D56   D(16,15,17,19)        175.0976         estimate D2E/DX2                !
 ! D57   D(16,15,17,21)        -66.3824         estimate D2E/DX2                !
 ! D58   D(16,15,17,23)         54.7826         estimate D2E/DX2                !
 ! D59   D(15,16,22,3)         -16.3985         estimate D2E/DX2                !
 ! D60   D(18,16,22,3)          99.3723         estimate D2E/DX2                !
 ! D61   D(20,16,22,3)        -134.9197         estimate D2E/DX2                !
 ! D62   D(15,17,23,3)          -9.2795         estimate D2E/DX2                !
 ! D63   D(19,17,23,3)        -126.069          estimate D2E/DX2                !
 ! D64   D(21,17,23,3)         109.278          estimate D2E/DX2                !
 ! D65   D(9,24,25,26)          36.0708         estimate D2E/DX2                !
 ! D66   D(9,24,25,27)         -67.083          estimate D2E/DX2                !
 ! D67   D(24,25,26,28)         62.1954         estimate D2E/DX2                !
 ! D68   D(24,25,26,30)       -179.274          estimate D2E/DX2                !
 ! D69   D(24,25,26,32)        -57.7569         estimate D2E/DX2                !
 ! D70   D(27,25,26,28)        168.6041         estimate D2E/DX2                !
 ! D71   D(27,25,26,30)        -72.8653         estimate D2E/DX2                !
 ! D72   D(27,25,26,32)         48.6519         estimate D2E/DX2                !
 ! D73   D(24,25,27,29)        -66.5997         estimate D2E/DX2                !
 ! D74   D(24,25,27,31)        174.7108         estimate D2E/DX2                !
 ! D75   D(24,25,27,33)         53.0282         estimate D2E/DX2                !
 ! D76   D(26,25,27,29)       -175.2194         estimate D2E/DX2                !
 ! D77   D(26,25,27,31)         66.0911         estimate D2E/DX2                !
 ! D78   D(26,25,27,33)        -55.5914         estimate D2E/DX2                !
 ! D79   D(1,34,35,36)          45.2319         estimate D2E/DX2                !
 ! D80   D(1,34,35,37)         -58.8041         estimate D2E/DX2                !
 ! D81   D(34,35,36,38)         60.5568         estimate D2E/DX2                !
 ! D82   D(34,35,36,40)        179.1775         estimate D2E/DX2                !
 ! D83   D(34,35,36,42)        -59.3951         estimate D2E/DX2                !
 ! D84   D(37,35,36,38)        169.7142         estimate D2E/DX2                !
 ! D85   D(37,35,36,40)        -71.6651         estimate D2E/DX2                !
 ! D86   D(37,35,36,42)         49.7622         estimate D2E/DX2                !
 ! D87   D(34,35,37,39)        -61.0228         estimate D2E/DX2                !
 ! D88   D(34,35,37,41)       -179.533          estimate D2E/DX2                !
 ! D89   D(34,35,37,43)         58.9785         estimate D2E/DX2                !
 ! D90   D(36,35,37,39)       -170.8204         estimate D2E/DX2                !
 ! D91   D(36,35,37,41)         70.6694         estimate D2E/DX2                !
 ! D92   D(36,35,37,43)        -50.8191         estimate D2E/DX2                !
 ! D93   D(35,36,42,2)          -9.4343         estimate D2E/DX2                !
 ! D94   D(38,36,42,2)        -126.149          estimate D2E/DX2                !
 ! D95   D(40,36,42,2)         109.5304         estimate D2E/DX2                !
 ! D96   D(35,37,43,2)          14.4904         estimate D2E/DX2                !
 ! D97   D(39,37,43,2)         130.8683         estimate D2E/DX2                !
 ! D98   D(41,37,43,2)        -104.6959         estimate D2E/DX2                !
 --------------------------------------------------------------------------------
 Trust Radius=3.00D-01 FncErr=5.00D-06 GrdErr=5.00D-06 EigMax=2.50D+02 EigMin=1.00D-04
 Number of steps in this run=    235 maximum allowed number of steps=    258.
 GradGradGradGradGradGradGradGradGradGradGradGradGradGradGradGradGradGrad

                          Input orientation:                          
 ---------------------------------------------------------------------
 Center     Atomic      Atomic             Coordinates (Angstroms)
 Number     Number       Type             X           Y           Z
 ---------------------------------------------------------------------
      1         82           0       -0.027240   -0.073810   -0.211540
      2         35           0       -2.856430    0.573220   -1.659870
      3         35           0        0.577040   -2.728590   -1.790550
      4          8           0       -0.469890    1.726770    1.359440
      5         16           0       -0.892720    3.238740    1.141170
      6          6           0       -2.716020    3.246340    1.242280
      7          6           0       -0.741740    3.594080   -0.645470
      8          1           0       -2.977930    2.961100    2.277340
      9          1           0        0.291640    3.305110   -0.921940
     10          1           0       -3.064140    4.275280    1.028130
     11          1           0       -0.921760    4.676950   -0.785110
     12          1           0       -3.103410    2.518540    0.501860
     13          1           0       -1.474260    2.971780   -1.198500
     14          8           0        1.830370   -0.287390    1.283860
     15         16           0        2.813790   -1.452150    1.729600
     16          6           0        1.803940   -2.963160    1.864830
     17          6           0        3.762320   -1.896600    0.236280
     18          1           0        1.005780   -2.726830    2.590410
     19          1           0        4.369950   -1.009740   -0.019850
     20          1           0        2.469330   -3.767550    2.232850
     21          1           0        4.413840   -2.753340    0.494220
     22          1           0        1.370060   -3.194590    0.871980
     23          1           0        3.044710   -2.151650   -0.570180
     24          8           0        1.682190    1.621930   -1.102760
     25         16           0        3.106430    1.750450   -0.423360
     26          6           0        2.838610    2.684550    1.123430
     27          6           0        3.914900    3.060640   -1.399960
     28          1           0        2.161990    2.044450    1.719250
     29          1           0        4.059390    2.648510   -2.415420
     30          1           0        3.817460    2.808280    1.625060
     31          1           0        4.892890    3.292830   -0.937730
     32          1           0        2.379700    3.662510    0.890400
     33          1           0        3.257400    3.950080   -1.425580
     34          8           0       -0.868860   -1.356820    1.658000
     35         16           0       -2.314220   -1.920600    1.975980
     36          6           0       -2.926490   -2.673140    0.429470
     37          6           0       -3.411540   -0.463830    2.019890
     38          1           0       -2.213540   -3.479690    0.177690
     39          1           0       -3.028910    0.178700    2.833960
     40          1           0       -3.932460   -3.088480    0.632220
     41          1           0       -4.436880   -0.812850    2.248890
     42          1           0       -2.954570   -1.898990   -0.364070
     43          1           0       -3.360750    0.047750    1.038240
 ---------------------------------------------------------------------
                    Distance matrix (angstroms):
                    1          2          3          4          5
     1  Pb   0.000000
     2  Br   3.243551   0.000000
     3  Br   3.147425   4.765264   0.000000
     4  O    2.430227   4.017771   5.555964   0.000000
     5  S    3.681286   4.336701   6.809127   1.585081   0.000000
     6  C    4.512929   3.948134   7.466063   2.714391   1.826117
     7  C    3.761944   3.824463   6.559462   2.753255   1.827880
     8  H    4.910374   4.606339   7.845898   2.942172   2.390830
     9  H    3.467485   4.232979   6.102579   2.876766   2.379819
    10  H    5.447396   4.579709   8.381965   3.651685   2.408788
    11  H    4.868148   4.620471   7.622292   3.675166   2.404131
    12  H    4.085589   2.918620   6.806852   2.880585   2.411339
    13  H    3.513342   2.806483   6.087082   3.016930   2.425595
    14  O    2.394275   5.601097   4.120957   3.058390   4.457485
    15  S    3.706656   6.909560   4.361629   4.585314   6.007405
    16  C    4.001609   6.829974   3.862915   5.236522   6.801413
    17  C    4.228933   7.314591   3.866039   5.683476   6.989989
    18  H    3.994567   6.623585   4.401890   4.850509   6.425934
    19  H    4.499777   7.577334   4.525040   5.728436   6.862452
    20  H    5.084449   7.896789   4.565955   6.292012   7.847499
    21  H    5.234613   8.280274   4.465627   6.683623   8.030140
    22  H    3.586883   6.202409   2.816931   5.276629   6.824981
    23  H    3.725979   6.590584   2.812749   5.578350   6.891181
    24  O    2.567481   4.691400   4.541083   3.271830   3.778817
    25  S    3.632173   6.202461   5.322483   3.996123   4.544883
    26  C    4.195687   6.681164   6.550425   3.452422   3.772302
    27  C    5.174706   7.218429   6.693957   5.349755   5.440797
    28  H    3.606619   6.226356   6.132917   2.675290   3.330429
    29  H    5.382254   7.259907   6.436647   5.967709   6.125447
    30  H    5.144051   7.767050   7.267988   4.429626   4.754497
    31  H    6.005772   8.244375   7.457303   6.040608   6.148011
    32  H    4.579052   6.592772   7.161231   3.476672   3.309260
    33  H    5.334271   6.988347   7.205704   5.156756   4.931299
    34  O    2.418598   4.322470   3.983074   3.123594   4.624592
    35  S    3.664172   4.442132   4.816532   4.133398   5.416305
    36  C    3.946272   3.861231   4.148046   5.124347   6.292302
    37  C    4.072454   3.863192   5.962999   3.726691   4.563510
    38  H    4.065886   4.496222   3.496492   5.616411   6.914489
    39  H    4.283556   4.514411   6.545327   3.334563   4.097889
    40  H    5.005088   4.451917   5.131757   5.975355   7.037952
    41  H    5.103413   4.438177   6.717628   4.793517   5.495771
    42  H    3.453087   2.792947   3.898121   4.721256   5.737006
    43  H    3.562164   2.794683   5.587156   3.358474   4.035367
                    6          7          8          9         10
     6  C    0.000000
     7  C    2.753598   0.000000
     8  H    1.105128   3.734170   0.000000
     9  H    3.705850   1.108067   4.587355   0.000000
    10  H    1.107143   2.942535   1.815221   4.000658   0.000000
    11  H    3.062078   1.106578   4.068240   1.836575   2.835308
    12  H    1.108145   2.837365   1.834103   3.764607   1.834295
    13  H    2.752228   1.108912   3.787163   1.818240   3.030629
    14  O    5.758354   5.040226   5.887227   4.487683   6.696237
    15  S    7.272695   6.614166   7.302110   6.001952   8.236843
    16  C    7.705550   7.468567   7.624520   7.024553   8.763178
    17  C    8.332512   7.156229   8.555358   6.359629   9.236866
    18  H    7.165753   7.312910   6.951295   7.016473   8.248304
    19  H    8.361708   6.907672   8.662332   6.005357   9.181252
    20  H    8.778595   8.531664   8.657329   8.044722   9.836552
    21  H    9.348297   8.256430   9.511709   7.463435  10.276514
    22  H    7.636671   7.269690   7.666327   6.828414   8.688237
    23  H    8.099958   6.881590   8.397665   6.122039   9.009887
    24  O    5.242344   3.158152   5.910598   2.190758   5.840257
    25  S    6.238026   4.272788   6.766010   3.254012   6.823307
    26  C    5.584232   4.095749   5.936339   3.325010   6.114079
    27  C    7.140379   4.747432   7.813037   3.662824   7.488523
    28  H    5.046486   4.052765   5.250761   3.473234   5.724219
    29  H    7.722846   5.203621   8.464253   4.105794   8.077691
    30  H    6.559328   5.153551   6.828334   4.377837   7.061504
    31  H    7.915183   5.650241   8.508615   4.601293   8.254946
    32  H    5.124781   3.479507   5.578510   2.787886   5.479950
    33  H    6.579854   4.090040   7.319087   3.076584   6.788838
    34  O    4.977339   5.462009   4.845224   5.453113   6.077544
    35  S    5.234217   6.305267   4.935820   6.518933   6.312664
    36  C    5.978729   6.723591   5.929750   6.922582   6.975520
    37  C    3.854061   5.540633   3.461856   6.047546   4.854219
    38  H    6.828273   7.272002   6.817375   7.315642   7.847696
    39  H    3.470124   5.385388   2.837988   5.908238   4.477078
    40  H    6.479340   7.514639   6.341527   7.818979   7.425341
    41  H    4.522350   6.438355   4.046238   7.026426   5.409597
    42  H    5.395525   5.928712   5.531552   6.158876   6.330232
    43  H    3.269295   4.719168   3.188970   5.271874   4.237935
                   11         12         13         14         15
    11  H    0.000000
    12  H    3.327856   0.000000
    13  H    1.839498   2.398078   0.000000
    14  O    6.041484   5.729481   5.263543   0.000000
    15  S    7.605522   7.230974   6.821459   1.588227   0.000000
    16  C    8.533634   7.482567   7.440034   2.738242   1.822426
    17  C    8.136056   8.167144   7.292564   2.723860   1.824075
    18  H    8.362147   6.982936   7.278777   2.887540   2.373753
    19  H    7.805528   8.280824   7.169136   2.944642   2.382842
    20  H    9.587343   8.577102   8.529046   3.663382   2.394366
    21  H    9.236586   9.181603   8.385226   3.657698   2.404042
    22  H    8.364181   7.265589   7.099378   2.972094   2.419910
    23  H    7.899928   7.794827   6.860424   2.896127   2.414873
    24  O    4.026736   5.126469   3.434303   3.059970   4.330445
    25  S    4.992152   6.325196   4.803666   2.948851   3.870080
    26  C    4.663965   5.976747   4.906598   3.142406   4.180950
    27  C    5.136514   7.291602   5.393656   4.770478   5.601059
    28  H    4.765647   5.425056   4.753475   2.395206   3.556847
    29  H    5.619994   7.735187   5.675093   5.222328   5.962225
    30  H    5.635695   7.017405   6.000127   3.694336   4.378304
    31  H    5.979066   8.161664   6.380570   5.208883   5.826847
    32  H    3.838758   5.614635   4.437749   4.007279   5.201196
    33  H    4.289979   6.798841   4.837070   5.228158   6.271845
    34  O    6.509836   4.620421   5.221387   2.927371   3.684579
    35  S    7.286304   4.743608   5.892218   4.508218   5.155253
    36  C    7.714789   5.195198   6.051808   5.389759   6.010987
    37  C    6.363541   3.360638   5.090629   5.296271   6.309975
    38  H    8.314232   6.072538   6.637914   5.269497   5.638563
    39  H    6.145893   3.304405   5.145772   5.121782   6.165746
    40  H    8.448375   5.669479   6.791247   6.440571   7.028066
    41  H    7.190211   3.991042   5.914815   6.362846   7.297300
    42  H    6.895838   4.504060   5.158681   5.311175   6.152812
    43  H    5.541008   2.541403   4.136641   5.207723   6.391606
                   16         17         18         19         20
    16  C    0.000000
    17  C    2.761336   0.000000
    18  H    1.104254   3.718834   0.000000
    19  H    3.735275   1.105141   4.591241   0.000000
    20  H    1.106899   3.026313   1.831100   4.036401   0.000000
    21  H    2.955364   1.106804   4.001198   1.818333   2.798674
    22  H    1.107954   2.794960   1.817829   3.816840   1.840827
    23  H    2.850848   1.109231   3.804917   1.833871   3.286209
    24  O    5.463009   4.301165   5.745324   3.914388   6.386891
    25  S    5.399112   3.763813   5.791509   3.062344   6.157083
    26  C    5.789373   4.756807   5.898672   4.159311   6.557193
    27  C    7.169461   5.222527   7.607946   4.322010   7.868364
    28  H    5.022504   4.504679   4.986066   4.150618   5.842738
    29  H    7.409348   5.270464   7.954693   4.383834   8.080874
    30  H    6.117293   4.905879   6.282904   4.193835   6.740060
    31  H    7.518867   5.439363   7.987096   4.430359   8.110190
    32  H    6.721645   5.765693   6.752878   5.159416   7.550894
    33  H    7.793089   6.099212   8.110431   5.273866   8.577119
    34  O    3.125215   4.874472   2.502117   5.511876   4.157594
    35  S    4.249533   6.320718   3.471301   7.034993   5.134156
    36  C    4.951902   6.736506   4.487237   7.497121   5.793512
    37  C    5.785493   7.529831   4.995936   8.062887   6.748670
    38  H    4.387869   6.182274   4.092925   7.034345   5.122091
    39  H    5.845249   7.561456   4.977966   8.018713   6.794473
    40  H    5.868673   7.796601   5.324614   8.583494   6.633707
    41  H    6.612047   8.511874   5.779490   9.096494   7.511741
    42  H    5.361331   6.743666   5.009855   7.386328   6.297158
    43  H    6.035135   7.427097   5.401306   7.874107   7.069189
                   21         22         23         24         25
    21  H    0.000000
    22  H    3.098710   0.000000
    23  H    1.835618   2.443768   0.000000
    24  O    5.399560   5.214968   4.047222   0.000000
    25  S    4.778640   5.398732   3.905349   1.583212   0.000000
    26  C    5.696306   6.064994   5.128316   2.724406   1.826699
    27  C    6.135081   7.125014   5.349181   2.672678   1.823176
    28  H    5.439698   5.365870   4.860858   2.893522   2.359911
    29  H    6.145862   7.223663   5.241758   2.903106   2.383893
    30  H    5.706670   6.526204   5.478789   3.661667   2.412590
    31  H    6.231865   7.600789   5.761356   3.623222   2.415565
    32  H    6.742241   6.931056   6.031583   2.936524   2.431065
    33  H    7.068156   7.738678   6.165067   2.829449   2.421902
    34  O    5.586732   3.001331   4.573026   4.796103   5.458032
    35  S    6.939442   4.051640   5.937545   6.164370   6.972581
    36  C    7.341054   4.350640   6.076716   6.483463   7.529382
    37  C    8.294944   5.624806   7.158237   6.328303   7.304549
    38  H    6.674574   3.661354   5.474687   6.545440   7.484498
    39  H    8.334613   5.880424   7.342177   6.306754   7.122003
    40  H    8.354166   5.308998   7.141731   7.531428   8.606710
    41  H    9.229280   6.425661   8.106401   7.389501   8.403151
    42  H    7.467265   4.680686   6.008134   5.868738   7.075143
    43  H    8.281685   5.737680   6.960912   5.700278   6.845428
                   26         27         28         29         30
    26  C    0.000000
    27  C    2.768996   0.000000
    28  H    1.105687   3.719517   0.000000
    29  H    3.743670   1.105390   4.589173   0.000000
    30  H    1.106837   3.037092   1.825620   4.050868   0.000000
    31  H    2.972953   1.106360   4.009465   1.814783   2.821211
    32  H    1.105128   2.822204   1.830986   3.844216   1.826633
    33  H    2.876526   1.106375   3.836835   1.821279   3.305114
    34  O    5.510333   7.193708   4.556143   7.544738   6.269828
    35  S    6.963182   8.660927   5.985314   8.987996   7.751319
    36  C    7.900810   9.111952   7.057749   9.231245   8.772472
    37  C    7.055516   8.820090   6.119321   9.228945   7.944875
    38  H    8.025989   9.100696   7.213723   9.144873   8.832124
    39  H    6.605527   8.628334   5.627526   9.159692   7.432961
    40  H    8.911596  10.174600   8.041824  10.299069   9.788706
    41  H    8.150535   9.903043   7.210393  10.291910   9.035257
    42  H    7.535412   8.535843   6.787498   8.607173   8.483833
    43  H    6.737361   8.243628   5.911958   8.587794   7.713079
                   31         32         33         34         35
    31  H    0.000000
    32  H    3.129672   0.000000
    33  H    1.828880   2.493355   0.000000
    34  O    7.845688   6.027937   7.395788   0.000000
    35  S    9.360128   7.374448   8.779433   1.583674   0.000000
    36  C    9.929992   8.276990   9.249257   2.734196   1.825619
    37  C    9.582461   7.200062   8.707963   2.719121   1.824340
    38  H    9.879906   8.521551   9.364996   2.916515   2.382172
    39  H    9.310122   6.720671   8.478483   2.899400   2.377808
    40  H   11.003302   9.245858  10.269857   3.665585   2.405896
    41  H   10.679689   8.266807   9.766738   3.657297   2.409829
    42  H    9.426914   7.807587   8.598081   2.955148   2.426180
    43  H    9.086120   6.785360   8.068364   2.926847   2.418467
                   36         37         38         39         40
    36  C    0.000000
    37  C    2.765097   0.000000
    38  H    1.105538   3.731530   0.000000
    39  H    3.731629   1.105423   4.593954   0.000000
    40  H    1.107064   3.014262   1.820530   4.042094   0.000000
    41  H    3.008695   1.107058   4.042913   1.818752   2.836645
    42  H    1.108965   2.819888   1.827906   3.814409   1.834053
    43  H    2.821777   1.108120   3.807817   1.830813   3.213665
                   41         42         43
    41  H    0.000000
    42  H    3.194449   0.000000
    43  H    1.834220   2.433362   0.000000
 Stoichiometry    C8H24Br2O4PbS4
 Framework group  C1[X(C8H24Br2O4PbS4)]
 Deg. of freedom   123
 Full point group                 C1      NOp   1
 Largest Abelian subgroup         C1      NOp   1
 Largest concise Abelian subgroup C1      NOp   1
                         Standard orientation:                         
 ---------------------------------------------------------------------
 Center     Atomic      Atomic             Coordinates (Angstroms)
 Number     Number       Type             X           Y           Z
 ---------------------------------------------------------------------
      1         82           0       -0.027240   -0.073810   -0.211541
      2         35           0       -2.856433    0.573204   -1.659871
      3         35           0        0.577055   -2.728587   -1.790551
      4          8           0       -0.469900    1.726767    1.359439
      5         16           0       -0.892738    3.238735    1.141169
      6          6           0       -2.716038    3.246325    1.242279
      7          6           0       -0.741760    3.594076   -0.645471
      8          1           0       -2.977946    2.961084    2.277339
      9          1           0        0.291622    3.305111   -0.921941
     10          1           0       -3.064163    4.275263    1.028129
     11          1           0       -0.921786    4.676945   -0.785111
     12          1           0       -3.103424    2.518523    0.501859
     13          1           0       -1.474276    2.971772   -1.198501
     14          8           0        1.830371   -0.287380    1.283859
     15         16           0        2.813798   -1.452135    1.729599
     16          6           0        1.803956   -2.963150    1.864829
     17          6           0        3.762330   -1.896580    0.236279
     18          1           0        1.005795   -2.726825    2.590409
     19          1           0        4.369955   -1.009716   -0.019851
     20          1           0        2.469350   -3.767537    2.232849
     21          1           0        4.413855   -2.753316    0.494219
     22          1           0        1.370077   -3.194583    0.871979
     23          1           0        3.044722   -2.151634   -0.570181
     24          8           0        1.682181    1.621939   -1.102761
     25         16           0        3.106420    1.750467   -0.423361
     26          6           0        2.838595    2.684565    1.123429
     27          6           0        3.914883    3.060661   -1.399961
     28          1           0        2.161979    2.044462    1.719249
     29          1           0        4.059375    2.648532   -2.415421
     30          1           0        3.817445    2.808301    1.625059
     31          1           0        4.892872    3.292857   -0.937731
     32          1           0        2.379680    3.662523    0.890399
     33          1           0        3.257378    3.950098   -1.425581
     34          8           0       -0.868853   -1.356825    1.657999
     35         16           0       -2.314210   -1.920613    1.975979
     36          6           0       -2.926476   -2.673156    0.429469
     37          6           0       -3.411538   -0.463849    2.019889
     38          1           0       -2.213521   -3.479702    0.177689
     39          1           0       -3.028911    0.178683    2.833959
     40          1           0       -3.932443   -3.088501    0.632219
     41          1           0       -4.436876   -0.812874    2.248889
     42          1           0       -2.954560   -1.899006   -0.364071
     43          1           0       -3.360750    0.047732    1.038239
 ---------------------------------------------------------------------
 Rotational constants (GHZ):           0.1513543           0.1374066           0.1034587
 General basis read from cards:  (5D, 7F)
 ======================================================================================================
                                       Pseudopotential Parameters
 ======================================================================================================
  Center     Atomic      Valence      Angular      Power
  Number     Number     Electrons     Momentum     of R      Exponent        Coefficient   SO-Coeffient
 ======================================================================================================
    1         82            4
                                      G and up 
                                                     0      376.5803786       -0.17896050    0.00000000
                                                     1       86.4840014      -54.39723370    0.00000000
                                                     2       26.6784276     -199.70617590    0.00000000
                                                     2        9.4261986      -79.12239410    0.00000000
                                                     2        2.7101719      -24.98690200    0.00000000
                                                     2        0.8792031       -4.43979390    0.00000000
                                      S - G
                                                     0      132.4248796        2.81153860    0.00000000
                                                     1       47.2376044       65.03672050    0.00000000
                                                     2       17.6312727      212.78685450    0.00000000
                                                     2        5.4744712       72.10531750    0.00000000
                                                     2        1.2634856       33.01409400    0.00000000
                                                     2        0.7651447       -5.77084610    0.00000000
                                      P - G
                                                     0       67.8966454        4.87549110    0.00000000
                                                     1       24.9898225       63.91481020    0.00000000
                                                     2       10.7052939      148.10643580    0.00000000
                                                     2        3.2792568       47.31063010    0.00000000
                                                     2        0.8452522       21.03067020    0.00000000
                                                     2        0.6416245       -7.09307720    0.00000000
                                      D - G
                                                     0       68.8336005        3.21613880    0.00000000
                                                     1       24.2815874       55.73860860    0.00000000
                                                     2        9.4532762      121.41683510    0.00000000
                                                     2        2.4788185       19.34560640    0.00000000
                                                     2        2.4789161       15.36751680    0.00000000
                                                     2        0.5551738        6.12987240    0.00000000
                                      F - G
                                                     0      128.1021322        4.13536820    0.00000000
                                                     1       54.8029154       67.51284460    0.00000000
                                                     2       24.5529308      258.73731070    0.00000000
                                                     2        8.1144792      113.24782640    0.00000000
                                                     2        1.6931290       34.16802010    0.00000000
                                                     2        0.7670500       -6.55319560    0.00000000
    2         35            7
                                      F and up 
                                                     1      213.6143969      -28.00000000    0.00000000
                                                     2       41.0585380     -134.92688520    0.00000000
                                                     2        8.7086530      -41.92719130    0.00000000
                                                     2        2.6074661       -5.93364200    0.00000000
                                      S - F
                                                     0       54.1980682        3.00000000    0.00000000
                                                     1       32.9053558       27.34306420    0.00000000
                                                     2       13.6744890      118.80288470    0.00000000
                                                     2        3.0341152       43.43548760    0.00000000
                                      P - F
                                                     0       54.2563340        5.00000000    0.00000000
                                                     1       26.0095593       25.05042520    0.00000000
                                                     2       28.2012995       92.61574630    0.00000000
                                                     2        9.4341061       95.82490160    0.00000000
                                                     2        2.5321764       26.26849830    0.00000000
                                      D - F
                                                     0       87.6328721        3.00000000    0.00000000
                                                     1       61.7373377       22.55335570    0.00000000
                                                     2       32.4385104      178.12419880    0.00000000
                                                     2        8.7537199       76.99241620    0.00000000
                                                     2        1.6633189        9.48182700    0.00000000
    3         35            7
                                      F and up 
                                                     1      213.6143969      -28.00000000    0.00000000
                                                     2       41.0585380     -134.92688520    0.00000000
                                                     2        8.7086530      -41.92719130    0.00000000
                                                     2        2.6074661       -5.93364200    0.00000000
                                      S - F
                                                     0       54.1980682        3.00000000    0.00000000
                                                     1       32.9053558       27.34306420    0.00000000
                                                     2       13.6744890      118.80288470    0.00000000
                                                     2        3.0341152       43.43548760    0.00000000
                                      P - F
                                                     0       54.2563340        5.00000000    0.00000000
                                                     1       26.0095593       25.05042520    0.00000000
                                                     2       28.2012995       92.61574630    0.00000000
                                                     2        9.4341061       95.82490160    0.00000000
                                                     2        2.5321764       26.26849830    0.00000000
                                      D - F
                                                     0       87.6328721        3.00000000    0.00000000
                                                     1       61.7373377       22.55335570    0.00000000
                                                     2       32.4385104      178.12419880    0.00000000
                                                     2        8.7537199       76.99241620    0.00000000
                                                     2        1.6633189        9.48182700    0.00000000
    4          8
                                   No pseudopotential on this center.
    5         16
                                   No pseudopotential on this center.
    6          6
                                   No pseudopotential on this center.
    7          6
                                   No pseudopotential on this center.
    8          1
                                   No pseudopotential on this center.
    9          1
                                   No pseudopotential on this center.
   10          1
                                   No pseudopotential on this center.
   11          1
                                   No pseudopotential on this center.
   12          1
                                   No pseudopotential on this center.
   13          1
                                   No pseudopotential on this center.
   14          8
                                   No pseudopotential on this center.
   15         16
                                   No pseudopotential on this center.
   16          6
                                   No pseudopotential on this center.
   17          6
                                   No pseudopotential on this center.
   18          1
                                   No pseudopotential on this center.
   19          1
                                   No pseudopotential on this center.
   20          1
                                   No pseudopotential on this center.
   21          1
                                   No pseudopotential on this center.
   22          1
                                   No pseudopotential on this center.
   23          1
                                   No pseudopotential on this center.
   24          8
                                   No pseudopotential on this center.
   25         16
                                   No pseudopotential on this center.
   26          6
                                   No pseudopotential on this center.
   27          6
                                   No pseudopotential on this center.
   28          1
                                   No pseudopotential on this center.
   29          1
                                   No pseudopotential on this center.
   30          1
                                   No pseudopotential on this center.
   31          1
                                   No pseudopotential on this center.
   32          1
                                   No pseudopotential on this center.
   33          1
                                   No pseudopotential on this center.
   34          8
                                   No pseudopotential on this center.
   35         16
                                   No pseudopotential on this center.
   36          6
                                   No pseudopotential on this center.
   37          6
                                   No pseudopotential on this center.
   38          1
                                   No pseudopotential on this center.
   39          1
                                   No pseudopotential on this center.
   40          1
                                   No pseudopotential on this center.
   41          1
                                   No pseudopotential on this center.
   42          1
                                   No pseudopotential on this center.
   43          1
                                   No pseudopotential on this center.
 ======================================================================================================
 There are   400 symmetry adapted cartesian basis functions of A   symmetry.
 There are   384 symmetry adapted basis functions of A   symmetry.
   384 basis functions,   884 primitive gaussians,   400 cartesian basis functions
    93 alpha electrons       93 beta electrons
       nuclear repulsion energy      2172.0135617684 Hartrees.
 NAtoms=   43 NActive=   43 NUniq=   43 SFac= 1.00D+00 NAtFMM=   60 NAOKFM=F Big=F
 Integral buffers will be    131072 words long.
 Raffenetti 2 integral format.
 Two-electron integral symmetry is turned on.
 Nuclear repulsion after empirical dispersion term =     2171.9491744378 Hartrees.
 ------------------------------------------------------------------------------
 Polarizable Continuum Model (PCM)
 =================================
 Model                : PCM.
 Atomic radii         : UFF (Universal Force Field).
 Polarization charges : Total charges.
 Charge compensation  : None.
 Solution method      : On-the-fly selection.
 Cavity type          : Scaled VdW (van der Waals Surface) (Alpha=1.100).
 Cavity algorithm     : GePol (No added spheres)
                        Default sphere list used, NSphG=   43.
                        Lebedev-Laikov grids with approx.  5.0 points / Ang**2.
                        Smoothing algorithm: York/Karplus (Gamma=1.0000).
                        Polarization charges: spherical gaussians, with
                                              point-specific exponents (IZeta= 3).
                        Self-potential: point-specific (ISelfS= 7).
                        Self-field    : sphere-specific E.n sum rule (ISelfD= 2).
 1st derivatives      : Analytical E(r).r(x)/FMM algorithm (CHGder, D1EAlg=3).
                        Cavity 1st derivative terms included.
 Solvent              : DiMethylSulfoxide, Eps=  46.826000 Eps(inf)=   2.007889
 ------------------------------------------------------------------------------
 One-electron integrals computed using PRISM.
   1 Symmetry operations used in ECPInt.
 ECPInt:  NShTT=   17766 NPrTT=  146097 LenC2=   15879 LenP2D=   66840.
 LDataN:  DoStor=T MaxTD1= 6 Len=  172
 NBasis=   384 RedAO= T EigKep=  6.63D-03  NBF=   384
 NBsUse=   384 1.00D-06 EigRej= -1.00D+00 NBFU=   384
 Defaulting to unpruned grid for atomic number  82.
 ExpMin= 5.98D-02 ExpMax= 1.11D+05 ExpMxC= 1.07D+03 IAcc=3 IRadAn=         5 AccDes= 0.00D+00
 Harris functional with IExCor= 1009 and IRadAn=       5 diagonalized for initial guess.
 HarFok:  IExCor= 1009 AccDes= 0.00D+00 IRadAn=         5 IDoV= 1 UseB2=F ITyADJ=14
 ICtDFT=  3500011 ScaDFX=  1.000000  1.000000  1.000000  1.000000
 Defaulting to unpruned grid for atomic number  82.
 FoFCou: FMM=F IPFlag=           0 FMFlag=      100000 FMFlg1=           0
         NFxFlg=           0 DoJE=T BraDBF=F KetDBF=T FulRan=T
         wScrn=  0.000000 ICntrl=       500 IOpCl=  0 I1Cent=   200000004 NGrid=           0
         NMat0=    1 NMatS0=      1 NMatT0=    0 NMatD0=    1 NMtDS0=    0 NMtDT0=    0
 Petite list used in FoFCou.
 Requested convergence on RMS density matrix=1.00D-08 within 128 cycles.
 Requested convergence on MAX density matrix=1.00D-06.
 Requested convergence on             energy=1.00D-06.
 No special actions if energy rises.
 Defaulting to unpruned grid for atomic number  82.
 Defaulting to unpruned grid for atomic number  82.
 Defaulting to unpruned grid for atomic number  82.
 Defaulting to unpruned grid for atomic number  82.
 Inv3:  Mode=1 IEnd=    37446267.
 Iteration    1 A*A^-1 deviation from unit magnitude is 3.55D-15 for   1770.
 Iteration    1 A*A^-1 deviation from orthogonality  is 2.11D-15 for   3088   1405.
 Iteration    1 A^-1*A deviation from unit magnitude is 3.44D-15 for   1770.
 Iteration    1 A^-1*A deviation from orthogonality  is 2.55D-15 for   2320   1126.
 EnCoef did   100 forward-backward iterations
 Error on total polarization charges =  0.01689
 SCF Done:  E(RPBE-PBE) =  -2241.45860918     A.U. after   14 cycles
            NFock= 14  Conv=0.78D-08     -V/T= 2.0127

 **********************************************************************

            Population analysis using the SCF Density.

 **********************************************************************

 Orbital symmetries:
       Occupied  (A) (A) (A) (A) (A) (A) (A) (A) (A) (A) (A) (A)
                 (A) (A) (A) (A) (A) (A) (A) (A) (A) (A) (A) (A)
                 (A) (A) (A) (A) (A) (A) (A) (A) (A) (A) (A) (A)
                 (A) (A) (A) (A) (A) (A) (A) (A) (A) (A) (A) (A)
                 (A) (A) (A) (A) (A) (A) (A) (A) (A) (A) (A) (A)
                 (A) (A) (A) (A) (A) (A) (A) (A) (A) (A) (A) (A)
                 (A) (A) (A) (A) (A) (A) (A) (A) (A) (A) (A) (A)
                 (A) (A) (A) (A) (A) (A) (A) (A) (A)
       Virtual   (A) (A) (A) (A) (A) (A) (A) (A) (A) (A) (A) (A)
                 (A) (A) (A) (A) (A) (A) (A) (A) (A) (A) (A) (A)
                 (A) (A) (A) (A) (A) (A) (A) (A) (A) (A) (A) (A)
                 (A) (A) (A) (A) (A) (A) (A) (A) (A) (A) (A) (A)
                 (A) (A) (A) (A) (A) (A) (A) (A) (A) (A) (A) (A)
                 (A) (A) (A) (A) (A) (A) (A) (A) (A) (A) (A) (A)
                 (A) (A) (A) (A) (A) (A) (A) (A) (A) (A) (A) (A)
                 (A) (A) (A) (A) (A) (A) (A) (A) (A) (A) (A) (A)
                 (A) (A) (A) (A) (A) (A) (A) (A) (A) (A) (A) (A)
                 (A) (A) (A) (A) (A) (A) (A) (A) (A) (A) (A) (A)
                 (A) (A) (A) (A) (A) (A) (A) (A) (A) (A) (A) (A)
                 (A) (A) (A) (A) (A) (A) (A) (A) (A) (A) (A) (A)
                 (A) (A) (A) (A) (A) (A) (A) (A) (A) (A) (A) (A)
                 (A) (A) (A) (A) (A) (A) (A) (A) (A) (A) (A) (A)
                 (A) (A) (A) (A) (A) (A) (A) (A) (A) (A) (A) (A)
                 (A) (A) (A) (A) (A) (A) (A) (A) (A) (A) (A) (A)
                 (A) (A) (A) (A) (A) (A) (A) (A) (A) (A) (A) (A)
                 (A) (A) (A) (A) (A) (A) (A) (A) (A) (A) (A) (A)
                 (A) (A) (A) (A) (A) (A) (A) (A) (A) (A) (A) (A)
                 (A) (A) (A) (A) (A) (A) (A) (A) (A) (A) (A) (A)
                 (A) (A) (A) (A) (A) (A) (A) (A) (A) (A) (A) (A)
                 (A) (A) (A) (A) (A) (A) (A) (A) (A) (A) (A) (A)
                 (A) (A) (A) (A) (A) (A) (A) (A) (A) (A) (A) (A)
                 (A) (A) (A) (A) (A) (A) (A) (A) (A) (A) (A) (A)
                 (A) (A) (A)
 The electronic state is 1-A.
 Alpha  occ. eigenvalues --  -88.18044 -88.17872 -88.17700 -88.17680 -18.76236
 Alpha  occ. eigenvalues --  -18.75832 -18.75504 -18.75156  -9.93145  -9.92801
 Alpha  occ. eigenvalues --   -9.92772  -9.92750  -9.92684  -9.92580  -9.92499
 Alpha  occ. eigenvalues --   -9.92083  -7.78187  -7.78017  -7.77804  -7.77779
 Alpha  occ. eigenvalues --   -5.80511  -5.80326  -5.80208  -5.80111  -5.80064
 Alpha  occ. eigenvalues --   -5.80049  -5.79836  -5.79836  -5.79572  -5.79408
 Alpha  occ. eigenvalues --   -5.79200  -5.79185  -0.92957  -0.92524  -0.92204
 Alpha  occ. eigenvalues --   -0.91934  -0.73537  -0.73298  -0.73015  -0.72941
 Alpha  occ. eigenvalues --   -0.65293  -0.65225  -0.65135  -0.64869  -0.60372
 Alpha  occ. eigenvalues --   -0.60081  -0.56408  -0.55567  -0.55337  -0.55063
 Alpha  occ. eigenvalues --   -0.46454  -0.42650  -0.42253  -0.42109  -0.41954
 Alpha  occ. eigenvalues --   -0.41728  -0.41577  -0.41458  -0.41355  -0.41096
 Alpha  occ. eigenvalues --   -0.40834  -0.40680  -0.39872  -0.37703  -0.37545
 Alpha  occ. eigenvalues --   -0.37500  -0.37439  -0.37183  -0.36849  -0.36362
 Alpha  occ. eigenvalues --   -0.35123  -0.34730  -0.34626  -0.34529  -0.33778
 Alpha  occ. eigenvalues --   -0.32131  -0.31911  -0.31658  -0.31581  -0.25706
 Alpha  occ. eigenvalues --   -0.25017  -0.24858  -0.24418  -0.23293  -0.22695
 Alpha  occ. eigenvalues --   -0.22180  -0.21252  -0.20952  -0.20259  -0.20184
 Alpha  occ. eigenvalues --   -0.20009  -0.19763  -0.18060
 Alpha virt. eigenvalues --   -0.04507  -0.03531  -0.02946  -0.01038  -0.00653
 Alpha virt. eigenvalues --   -0.00078   0.00113   0.00497   0.01444   0.02442
 Alpha virt. eigenvalues --    0.02849   0.03305   0.03407   0.04001   0.04221
 Alpha virt. eigenvalues --    0.04955   0.05305   0.05646   0.06200   0.07287
 Alpha virt. eigenvalues --    0.07613   0.08476   0.08610   0.09613   0.09810
 Alpha virt. eigenvalues --    0.10329   0.10736   0.11008   0.11134   0.11705
 Alpha virt. eigenvalues --    0.12124   0.12331   0.12390   0.12999   0.13824
 Alpha virt. eigenvalues --    0.14240   0.14601   0.15860   0.18083   0.24882
 Alpha virt. eigenvalues --    0.27609   0.28728   0.29406   0.30580   0.30727
 Alpha virt. eigenvalues --    0.31162   0.32672   0.32915   0.33952   0.34962
 Alpha virt. eigenvalues --    0.35494   0.36698   0.37290   0.37577   0.37947
 Alpha virt. eigenvalues --    0.38650   0.38872   0.39569   0.39952   0.41468
 Alpha virt. eigenvalues --    0.41506   0.43045   0.43582   0.45038   0.46376
 Alpha virt. eigenvalues --    0.46619   0.46823   0.47718   0.48603   0.48834
 Alpha virt. eigenvalues --    0.49363   0.50146   0.50633   0.51290   0.51623
 Alpha virt. eigenvalues --    0.52071   0.52681   0.52847   0.53238   0.53454
 Alpha virt. eigenvalues --    0.53707   0.54096   0.54578   0.54714   0.55535
 Alpha virt. eigenvalues --    0.55875   0.56329   0.56959   0.57375   0.57713
 Alpha virt. eigenvalues --    0.58078   0.58394   0.58577   0.59199   0.59432
 Alpha virt. eigenvalues --    0.59613   0.59840   0.60540   0.61165   0.61461
 Alpha virt. eigenvalues --    0.62012   0.62227   0.62289   0.62699   0.63547
 Alpha virt. eigenvalues --    0.64072   0.64746   0.65700   0.66186   0.67006
 Alpha virt. eigenvalues --    0.67609   0.67821   0.69292   0.69989   0.71056
 Alpha virt. eigenvalues --    0.71662   0.72014   0.72867   0.75817   0.76957
 Alpha virt. eigenvalues --    0.80019   0.81420   0.83584   0.84349   0.85418
 Alpha virt. eigenvalues --    0.85858   0.86447   0.87296   0.87557   0.88506
 Alpha virt. eigenvalues --    0.89192   0.91182   0.96346   0.96946   0.97243
 Alpha virt. eigenvalues --    0.97599   0.98119   0.99445   0.99710   1.00050
 Alpha virt. eigenvalues --    1.01002   1.01919   1.02380   1.03116   1.03767
 Alpha virt. eigenvalues --    1.04215   1.05123   1.05788   1.06329   1.07110
 Alpha virt. eigenvalues --    1.08052   1.09128   1.10123   1.11446   1.12517
 Alpha virt. eigenvalues --    1.13404   1.15820   1.17108   1.17527   1.18123
 Alpha virt. eigenvalues --    1.18722   1.19624   1.21485   1.21938   1.23311
 Alpha virt. eigenvalues --    1.24045   1.24688   1.28457   1.31542   1.31661
 Alpha virt. eigenvalues --    1.32175   1.32985   1.33319   1.34854   1.35141
 Alpha virt. eigenvalues --    1.38006   1.50954   1.51940   1.52328   1.52647
 Alpha virt. eigenvalues --    1.52886   1.52976   1.53446   1.53725   1.53776
 Alpha virt. eigenvalues --    1.53948   1.54090   1.54225   1.54567   1.54906
 Alpha virt. eigenvalues --    1.55346   1.55647   1.56878   1.57147   1.57552
 Alpha virt. eigenvalues --    1.59627   1.61352   1.61913   1.62200   1.63076
 Alpha virt. eigenvalues --    1.63442   1.63847   1.63977   1.64143   1.65064
 Alpha virt. eigenvalues --    1.65084   1.65339   1.66020   1.67952   1.68602
 Alpha virt. eigenvalues --    1.68923   1.69616   1.69827   1.70105   1.71007
 Alpha virt. eigenvalues --    1.72528   1.73480   1.75350   1.76718   1.80848
 Alpha virt. eigenvalues --    1.81403   1.81511   1.81927   1.82396   1.88793
 Alpha virt. eigenvalues --    1.90010   1.90691   1.94456   2.03423   2.03580
 Alpha virt. eigenvalues --    2.03814   2.04401   2.05352   2.05863   2.06096
 Alpha virt. eigenvalues --    2.06228   2.06381   2.06666   2.06851   2.07324
 Alpha virt. eigenvalues --    2.07529   2.07713   2.07928   2.09298   2.30229
 Alpha virt. eigenvalues --    2.30504   2.30991   2.31344   2.31653   2.31854
 Alpha virt. eigenvalues --    2.32124   2.32547   2.33338   2.33558   2.34163
 Alpha virt. eigenvalues --    2.34735   2.34947   2.35287   2.35373   2.35940
 Alpha virt. eigenvalues --    2.36776   2.37046   2.37249   2.37439   2.38736
 Alpha virt. eigenvalues --    2.39604   2.40529   2.42106   2.52849   2.53267
 Alpha virt. eigenvalues --    2.53459   2.53985   2.54301   2.54697   2.55564
 Alpha virt. eigenvalues --    2.55880   2.62989   2.63409   2.63897   2.64202
 Alpha virt. eigenvalues --    2.64967   2.65013   2.65777   2.66333   3.04976
 Alpha virt. eigenvalues --    3.06673   3.08461   3.09010   9.47081  18.63064
 Alpha virt. eigenvalues --   18.72262
          Condensed to atoms (all electrons):
               1          2          3          4          5          6
     1  Pb   2.949956   0.019983   0.031246   0.045627  -0.013085  -0.003618
     2  Br   0.019983   7.589359   0.000119  -0.001260   0.000445  -0.011581
     3  Br   0.031246   0.000119   7.623704   0.000054  -0.000004  -0.000000
     4  O    0.045627  -0.001260   0.000054   8.259988   0.294064  -0.030332
     5  S   -0.013085   0.000445  -0.000004   0.294064  14.870187   0.252700
     6  C   -0.003618  -0.011581  -0.000000  -0.030332   0.252700   4.882147
     7  C   -0.003409  -0.016627  -0.000000  -0.029012   0.246184  -0.026501
     8  H   -0.000076   0.000136  -0.000000   0.001331  -0.022281   0.382811
     9  H   -0.002208  -0.000434   0.000007  -0.000039  -0.024938   0.004238
    10  H    0.000355   0.000121  -0.000000   0.002388  -0.011224   0.357547
    11  H    0.000340   0.000349   0.000000   0.002222  -0.011814  -0.000718
    12  H    0.000345   0.025674   0.000003   0.001587  -0.025110   0.370915
    13  H    0.001447   0.035080   0.000011   0.000568  -0.025625  -0.011571
    14  O    0.043549   0.000043  -0.000935  -0.000997  -0.000061  -0.000001
    15  S   -0.007900  -0.000004   0.000160   0.000003   0.000012  -0.000000
    16  C   -0.005401   0.000000  -0.016640  -0.000001  -0.000000  -0.000000
    17  C   -0.003076  -0.000000  -0.016630  -0.000001  -0.000000  -0.000000
    18  H   -0.000886   0.000001  -0.000108  -0.000005   0.000000  -0.000000
    19  H   -0.001196  -0.000000   0.000265  -0.000001  -0.000000  -0.000000
    20  H    0.000435   0.000000   0.000227  -0.000000  -0.000000   0.000000
    21  H    0.000336   0.000000   0.000197   0.000000  -0.000000   0.000000
    22  H    0.000906   0.000011   0.036033   0.000005  -0.000001   0.000000
    23  H    0.001202   0.000007   0.036597   0.000000  -0.000000  -0.000000
    24  O    0.044732   0.000109  -0.000083  -0.000892  -0.000657   0.000001
    25  S   -0.022663   0.000010  -0.000131  -0.001058   0.000073  -0.000005
    26  C    0.002247  -0.000000  -0.000001  -0.001774   0.001570   0.000042
    27  C    0.001207   0.000000   0.000000  -0.000003  -0.000007  -0.000000
    28  H   -0.004171   0.000006   0.000001   0.018422  -0.002903   0.000167
    29  H    0.000235  -0.000000  -0.000001   0.000000   0.000001  -0.000000
    30  H    0.000011  -0.000000   0.000000   0.000186   0.000007   0.000001
    31  H   -0.000152  -0.000000  -0.000000   0.000000  -0.000000  -0.000000
    32  H   -0.000076  -0.000001   0.000000  -0.001976   0.003406  -0.000063
    33  H   -0.000267   0.000000   0.000000  -0.000002  -0.000021  -0.000000
    34  O    0.047388  -0.000307  -0.001250  -0.000817   0.000121  -0.000010
    35  S   -0.013021   0.000663  -0.000804  -0.000590   0.000054   0.000022
    36  C   -0.004582  -0.017880  -0.002676   0.000000   0.000001  -0.000004
    37  C   -0.002963  -0.016854  -0.000013   0.000753  -0.000153  -0.000130
    38  H    0.001653   0.000082   0.009909   0.000001  -0.000000  -0.000000
    39  H    0.000414   0.000090   0.000001   0.002705   0.000175   0.000065
    40  H    0.000381   0.000184   0.000124  -0.000000  -0.000000   0.000000
    41  H    0.000381   0.000184   0.000001   0.000063   0.000003   0.000037
    42  H   -0.002031   0.039514   0.000909  -0.000045   0.000003   0.000002
    43  H   -0.002859   0.033716  -0.000025   0.000652  -0.000101  -0.000544
               7          8          9         10         11         12
     1  Pb  -0.003409  -0.000076  -0.002208   0.000355   0.000340   0.000345
     2  Br  -0.016627   0.000136  -0.000434   0.000121   0.000349   0.025674
     3  Br  -0.000000  -0.000000   0.000007  -0.000000   0.000000   0.000003
     4  O   -0.029012   0.001331  -0.000039   0.002388   0.002222   0.001587
     5  S    0.246184  -0.022281  -0.024938  -0.011224  -0.011814  -0.025110
     6  C   -0.026501   0.382811   0.004238   0.357547  -0.000718   0.370915
     7  C    4.992002   0.004519   0.335031  -0.000873   0.355799  -0.012654
     8  H    0.004519   0.572196  -0.000210  -0.015783  -0.000203  -0.019845
     9  H    0.335031  -0.000210   0.578547  -0.000109  -0.010314  -0.000083
    10  H   -0.000873  -0.015783  -0.000109   0.585165   0.001287  -0.012435
    11  H    0.355799  -0.000203  -0.010314   0.001287   0.584764   0.000321
    12  H   -0.012654  -0.019845  -0.000083  -0.012435   0.000321   0.565471
    13  H    0.372856   0.000319  -0.021970   0.000299  -0.014390   0.009887
    14  O   -0.000004  -0.000000  -0.000004   0.000000  -0.000000  -0.000000
    15  S   -0.000000   0.000000   0.000002  -0.000000  -0.000000  -0.000000
    16  C   -0.000000   0.000000   0.000000   0.000000   0.000000   0.000000
    17  C    0.000000  -0.000000  -0.000001   0.000000  -0.000000   0.000000
    18  H    0.000000  -0.000000  -0.000000   0.000000   0.000000   0.000000
    19  H   -0.000001   0.000000   0.000009   0.000000   0.000000  -0.000000
    20  H    0.000000  -0.000000   0.000000   0.000000   0.000000   0.000000
    21  H   -0.000000   0.000000   0.000000  -0.000000  -0.000000   0.000000
    22  H    0.000000  -0.000000   0.000000   0.000000   0.000000   0.000000
    23  H    0.000000  -0.000000  -0.000001   0.000000  -0.000000   0.000000
    24  O   -0.020599   0.000000   0.060300   0.000000   0.000244  -0.000004
    25  S    0.002924   0.000000  -0.008895   0.000000  -0.000036   0.000000
    26  C   -0.000626  -0.000001  -0.001639  -0.000000   0.000036   0.000000
    27  C    0.000179  -0.000000  -0.002259   0.000000   0.000002   0.000000
    28  H    0.000300   0.000004  -0.000012  -0.000010  -0.000064  -0.000018
    29  H    0.000011  -0.000000  -0.000097  -0.000000  -0.000002   0.000000
    30  H   -0.000032  -0.000000   0.000196  -0.000000   0.000004  -0.000000
    31  H   -0.000019  -0.000000   0.000176  -0.000000  -0.000001  -0.000000
    32  H   -0.001624  -0.000001   0.004274   0.000007   0.000102   0.000007
    33  H   -0.000664  -0.000000   0.004219   0.000000   0.000051  -0.000000
    34  O   -0.000005  -0.000010   0.000001  -0.000000  -0.000000  -0.000044
    35  S    0.000000  -0.000006  -0.000000  -0.000002  -0.000000   0.000011
    36  C   -0.000001  -0.000000   0.000000   0.000000   0.000000   0.000022
    37  C   -0.000013   0.000164  -0.000000   0.000027  -0.000000  -0.001554
    38  H    0.000000  -0.000000   0.000000   0.000000   0.000000   0.000001
    39  H    0.000031   0.002511  -0.000001   0.000033  -0.000002  -0.000314
    40  H    0.000000   0.000000   0.000000  -0.000000  -0.000000  -0.000000
    41  H   -0.000000  -0.000009  -0.000000   0.000003  -0.000000   0.000001
    42  H    0.000012  -0.000002   0.000001  -0.000001  -0.000000  -0.000109
    43  H   -0.000047  -0.000153  -0.000005   0.000021   0.000001   0.004767
              13         14         15         16         17         18
     1  Pb   0.001447   0.043549  -0.007900  -0.005401  -0.003076  -0.000886
     2  Br   0.035080   0.000043  -0.000004   0.000000  -0.000000   0.000001
     3  Br   0.000011  -0.000935   0.000160  -0.016640  -0.016630  -0.000108
     4  O    0.000568  -0.000997   0.000003  -0.000001  -0.000001  -0.000005
     5  S   -0.025625  -0.000061   0.000012  -0.000000  -0.000000   0.000000
     6  C   -0.011571  -0.000001  -0.000000  -0.000000  -0.000000  -0.000000
     7  C    0.372856  -0.000004  -0.000000  -0.000000   0.000000   0.000000
     8  H    0.000319  -0.000000   0.000000   0.000000  -0.000000  -0.000000
     9  H   -0.021970  -0.000004   0.000002   0.000000  -0.000001  -0.000000
    10  H    0.000299   0.000000  -0.000000   0.000000   0.000000   0.000000
    11  H   -0.014390  -0.000000  -0.000000   0.000000  -0.000000   0.000000
    12  H    0.009887  -0.000000  -0.000000   0.000000   0.000000   0.000000
    13  H    0.572783   0.000005  -0.000001   0.000000   0.000000   0.000000
    14  O    0.000005   8.254920   0.285752  -0.027844  -0.029745   0.000676
    15  S   -0.000001   0.285752  14.850326   0.258913   0.252611  -0.022715
    16  C    0.000000  -0.027844   0.258913   4.893893  -0.028448   0.373040
    17  C    0.000000  -0.029745   0.252611  -0.028448   4.904573   0.004549
    18  H    0.000000   0.000676  -0.022715   0.373040   0.004549   0.566297
    19  H   -0.000000  -0.000517  -0.022940   0.004039   0.377359  -0.000218
[...]
 .00000103,-0.00000118,-0.00005518,0.00001855,0.00000466,0.00003836,-0.
 00000576,0.00000647,-0.00001267,0.00000095,-0.00001143,-0.00000775,-0.
 00000203,-0.00000282,0.00002002,-0.00000681,0.00001523,-0.00000010,-0.
 00000096,0.00000096,-0.00000655,-0.00000158,0.00000372,-0.00000180,-0.
 00000319,0.00000207,0.00000647,0.00000581,0.00000047,0.00000105,0.,-0.
 00000063,0.00060880,0.00059482,0.00006253,0.00058453,0.00106783,-0.000
 19543,-0.00013299,-0.00004209,0.00031910,-0.07304604,-0.11740894,-0.19
 321140,-0.00015389,-0.00011464,0.00041951,0.07731542,0.12605357,0.2006
 1062,0.00023302,0.00044812,-0.00044632,-0.00000992,-0.00003184,0.00002
 063,-0.00025075,-0.00004754,0.00015662,0.00001079,-0.00010437,-0.00000
 356,-0.00002851,0.00004086,-0.00001435,0.00000578,-0.00000790,0.000006
 41,0.00000854,-0.00001259,0.00000599,0.00000036,0.00000354,0.,-0.00000
 036,0.00000154,-0.00000105,0.00000378,-0.00000137,-0.00000044,0.000000
 36,-0.00000240,0.00000333,-0.00000098,0.00000408,-0.00000160,-0.000004
 33,0.00000238,-0.00000094,-0.00009455,-0.00000436,0.00000859,0.0000763
 8,-0.00002659,0.00001983,-0.00001045,0.00002736,-0.00002257,-0.0000140
 0,0.00000529,-0.00000245,0.00003391,-0.00004202,0.00003947,-0.00000270
 ,-0.00000044,0.00000096,-0.00001779,0.00000038,0.00000241,-0.00000472,
 0.00000184,0.00000218,0.00001205,-0.00002456,0.00000180,0.00001557,0.0
 0000102,0.00000606,-0.00006257,-0.00002873,0.00000481,0.00003078,0.000
 00553,0.00001672,-0.00000368,-0.00000278,-0.00000324,-0.00001023,-0.00
 000509,-0.00000770,0.00000234,0.00000349,0.00000387,0.00000035,-0.0000
 0013,0.00000023,-0.00000118,-0.00000165,-0.00000093,-0.00000335,-0.000
 00475,0.00000305,0.00000084,-0.00000040,0.00000048,0.00000001,-0.00000
 092,0.00000068,-0.00039063,-0.00092078,-0.00167012,-0.00598821,-0.0011
 4278,0.00305996,-0.26454738,-0.09322340,0.04809112,-0.00024013,0.00032
 599,0.00035362,-0.01236640,-0.00851965,0.00158061,0.00010330,0.0000014
 5,-0.00011215,0.28046574,0.00063735,0.00043193,-0.00048937,0.00010908,
 -0.00034249,0.00013379,0.00023057,0.00013597,-0.00012180,0.00000702,-0
 .00009931,-0.00000303,-0.00002343,0.00004868,-0.00000409,0.00000927,-0
 .00000571,0.00000258,-0.00000137,-0.00002002,0.00000258,-0.00000148,-0
 .00000313,-0.00000352,-0.00000151,0.00000213,-0.00000359,0.00000373,-0
 .00000211,-0.00000291,-0.00000272,-0.00000565,0.00000059,-0.00000467,0
 .00001600,0.00001318,0.00001701,0.00002689,0.00000574,-0.00018889,0.00
 001815,-0.00002561,0.00009816,-0.00007371,0.00001567,-0.00001028,0.000
 04644,-0.00002992,-0.00000744,0.00001242,-0.00000011,0.00004075,-0.000
 06456,0.00004936,0.00000006,0.00000005,0.00000402,-0.00001892,0.000005
 32,0.00001154,-0.00000316,0.00000340,0.00000726,0.00000832,-0.00001448
 ,-0.00002459,-0.00000561,-0.00000236,-0.00000775,-0.00010156,-0.000045
 58,0.00000016,0.00005990,0.00000513,0.00003273,-0.00000783,-0.00000386
 ,-0.00000509,-0.00001749,-0.00000724,-0.00001311,0.00000186,0.00000390
 ,0.00000475,0.00000073,-0.00000005,0.00000033,-0.00000122,-0.00000269,
 -0.00000230,-0.00000522,-0.00000733,0.00000506,0.00000110,-0.00000065,
 0.00000123,0.00000038,-0.00000108,0.00000072,-0.00225165,-0.00048845,-
 0.00257042,-0.00821110,-0.00560046,0.00363523,-0.09422161,-0.07742983,
 0.02156520,0.00082421,0.00027684,0.00021319,0.01902157,0.00937755,-0.0
 0218375,0.00009225,0.00024388,-0.00004239,0.10040527,0.07983147,0.0000
 1091,0.00034438,-0.00135246,-0.00001435,0.00055402,-0.00018809,0.00039
 968,0.00010634,-0.00012935,0.00000600,-0.00011183,0.00006155,-0.000046
 38,0.00003575,-0.00000772,0.00000408,0.00000066,0.00001898,0.00001718,
 -0.00000933,0.00000415,0.00000262,0.00000518,0.00000374,0.00000065,0.0
 0000806,0.00000009,0.00000472,0.00000086,0.00000058,0.00000515,0.00000
 284,0.00001201,0.00000606,-0.00001049,-0.00002680,-0.00002845,-0.00003
 338,-0.00001137,-0.00024415,-0.00002998,0.00008508,0.00020132,-0.00008
 995,0.00006727,-0.00002687,0.00006158,-0.00006313,-0.00001665,0.000018
 08,-0.00000334,0.00008759,-0.00010799,0.00010699,-0.00000063,0.0000016
 5,0.00000778,-0.00003968,0.00000533,0.00001974,-0.00000510,0.00000510,
 0.00001273,0.00000362,-0.00002308,-0.00004437,-0.00001572,-0.00000599,
 -0.00001836,-0.00005032,-0.00003740,0.00000396,0.00000904,0.00000557,-
 0.00000382,-0.00000246,-0.00000249,-0.00000363,-0.00000668,-0.00000731
 ,-0.00000496,0.00000371,0.00000790,0.00000804,0.00000006,-0.00000048,0
 .00000048,-0.00000107,-0.00000167,-0.00000071,-0.00000303,-0.00000415,
 0.00000262,-0.00000028,-0.00000122,0.00000104,-0.00000090,-0.00000186,
 0.00000131,-0.00500851,-0.00396369,-0.00491447,-0.01826761,-0.00581253
 ,0.00657874,0.04762046,0.02002846,-0.04764820,0.00112136,0.00049256,0.
 00054627,0.00535363,0.00404492,-0.00148401,-0.00007228,0.00029743,-0.0
 0008494,-0.04980951,-0.01971206,0.04935472,0.00038562,0.00064786,-0.00
 076856,0.00001875,-0.00001504,0.00003503,-0.00002936,0.00005192,0.0000
 9135,0.00003141,-0.00009983,-0.00000981,-0.00001264,0.00006381,-0.0000
 2175,-0.00001505,-0.00002010,-0.00000624,0.00000462,-0.00001159,0.0000
 0536,-0.00000132,0.00000319,0.00001075,-0.00000028,0.00000850,-0.00000
 180,0.00000477,0.00000293,0.00000377,0.00000181,-0.00000251,0.00000416
 ,-0.00000599,-0.00001274,0.00000392,-0.00000334,0.00000661,0.00000135,
 -0.00016007,-0.00005236,0.00000500,0.00016594,-0.00001390,0.00002762,-
 0.00004769,0.00008076,-0.00007379,-0.00001620,-0.00000037,0.00000021,0
 .00007995,-0.00006597,0.00013651,-0.00000389,0.00000097,0.00000728,-0.
 00006411,-0.00000446,0.00001412,-0.00000377,0.00000306,0.00000551,0.00
 001893,-0.00004229,-0.00004781,0.00000841,-0.00000028,-0.00000431,-0.0
 0012332,-0.00005513,-0.00000203,0.00006579,0.00000713,0.00003568,-0.00
 000736,-0.00000497,-0.00000674,-0.00002120,-0.00000989,-0.00001566,0.0
 0000316,0.00000683,0.00000888,0.00000083,0.00000005,0.00000033,-0.0000
 0166,-0.00000332,-0.00000204,-0.00000627,-0.00000918,0.00000619,0.0000
 0102,-0.00000130,0.00000134,0.00000013,-0.00000171,0.00000120,-0.00322
 009,0.00297070,0.00021881,-0.01074813,-0.00703500,0.00273183,0.0005036
 3,-0.00054054,-0.00025278,-0.27244172,-0.08405717,0.05253479,0.0000970
 2,0.00011952,-0.00014332,-0.00581360,-0.00071399,0.00309121,0.00009887
 ,0.00024227,0.00012743,0.28949960,0.00000285,-0.00105796,0.00078351,-0
 .00012128,-0.00002119,0.00042993,0.00001664,-0.00000794,-0.00007319,-0
 .00046133,-0.00024349,0.00020902,0.00004485,0.00024099,-0.00001506,0.0
 0010480,-0.00005263,0.00003693,-0.00001344,-0.00003035,-0.00000290,-0.
 00001212,0.00009657,0.00005251,0.00000760,-0.00001625,0.00000332,-0.00
 006006,-0.00004251,0.00000311,-0.00000398,-0.00000450,0.00001191,-0.00
 002457,0.00005820,-0.00009892,0.00001511,0.00001740,-0.00000883,0.0001
 9852,0.00011460,-0.00005232,-0.00022855,0.00001631,-0.00005186,0.00005
 796,-0.00010609,0.00008529,0.00001849,0.00000343,0.00000059,-0.0000927
 9,0.00009136,-0.00016103,0.00000509,-0.00000181,-0.00000868,0.00008316
 ,0.00000642,-0.00001829,0.00000377,-0.00000354,-0.00000626,-0.00001865
 ,0.00004820,0.00006234,-0.00001044,0.00000248,0.00000856,0.00010591,0.
 00006221,0.00001629,-0.00004120,-0.00000923,-0.00003884,-0.00000090,0.
 00000593,-0.00000015,0.00002029,0.00001093,0.00001675,0.00001058,-0.00
 001335,-0.00000131,-0.00000107,-0.00000084,0.00000034,-0.00000229,0.00
 000336,0.00000491,0.00000586,0.00000886,-0.00000616,0.00000347,0.00000
 519,-0.00000121,0.00000073,0.00000228,-0.00000183,0.00693101,-0.003736
 95,-0.00075364,0.01671105,0.00898353,-0.00427951,-0.00143137,0.0002052
 6,0.00000069,-0.08286598,-0.06693528,0.01837672,-0.00000908,0.00005464
 ,0.00033259,-0.01473348,-0.00383218,0.00558541,0.00007836,-0.00110719,
 -0.00082764,0.08748823,0.07020079,-0.00052031,0.00009073,0.00012594,-0
 .00002993,0.00002337,-0.00050240,-0.00000229,-0.00004818,-0.00002097,0
 .00004260,-0.00002555,0.00007444,-0.00004202,-0.00003995,0.00000462,-0
 .00003085,0.00001724,-0.00006570,0.00000354,0.00000974,-0.00000370,-0.
 00000317,0.00001433,-0.00000570,-0.00000031,0.00000150,0.00000155,0.00
 001751,0.00002138,0.00002339,0.00000418,0.00000558,0.00000279,0.000021
 99,-0.00007497,0.00002743,-0.00001545,-0.00002805,0.00000396,0.0000772
 1,-0.00002564,0.00005115,-0.00000973,0.00002564,0.00001013,0.00000829,
 -0.00001185,0.00001424,0.00000153,-0.00000359,-0.00000099,-0.00000918,
 0.00000779,-0.00002110,0.00000011,0.00000032,-0.00000111,0.00000609,-0
 .00000207,-0.00000415,0.00000116,-0.00000110,-0.00000172,-0.00000218,0
 .00000116,0.00000175,0.00000076,-0.00000061,-0.00000251,0.00004949,0.0
 0002200,-0.00000557,-0.00003952,-0.00000558,-0.00001542,0.00000629,0.0
 0000223,0.00000419,0.00000779,0.00000252,0.00000574,-0.00000422,-0.000
 00064,-0.00000456,-0.00000032,0.00000020,-0.00000029,0.00000151,0.0000
 0127,0.00000062,0.00000240,0.00000318,-0.00000213,-0.00000171,-0.00000
 057,-0.00000061,-0.00000051,0.00000026,-0.00000007,0.00010228,-0.00000
 781,0.00116484,0.00088660,-0.00019538,-0.00292231,-0.00041748,-0.00021
 368,-0.00002041,0.05285754,0.01973823,-0.05127801,-0.00010872,0.000027
 76,0.00008116,-0.01968523,-0.00456837,0.00482639,-0.00006454,-0.000542
 21,-0.00018399,-0.05583397,-0.01903250,0.05016620,-0.00172350,-0.00124
 255,-0.00015229,-0.00108213,0.00031036,0.00006440,0.00058595,0.0000684
 4,-0.00023672,-0.00003586,0.00025271,0.00009606,0.00005792,-0.00014302
 ,0.00005963,-0.00000579,0.00002808,-0.00000570,0.00002041,0.00002263,-
 0.00000172,0.00000246,0.00000114,0.00000496,0.00000031,-0.00004339,0.0
 0000920,-0.00001217,0.00000178,0.00000059,-0.00000937,0.00000255,-0.00
 001084,-0.00000867,-0.00001232,-0.00002573,-0.00003898,0.00000316,-0.0
 0001314,0.00018678,-0.00005344,0.00012546,-0.00003641,0.00007455,0.000
 00914,0.00001948,-0.00002550,0.00001667,0.00001054,-0.00001260,-0.0000
 0242,-0.00001463,0.00002458,-0.00001305,0.00000289,0.00000271,0.000002
 23,0.00000727,-0.00000418,0.00000232,0.00000696,-0.00000185,-0.0000007
 1,0.00000162,0.00000295,-0.00001776,-0.00002590,-0.00000158,-0.0000143
 4,0.00011784,0.00004919,0.00001687,-0.00021907,-0.00003052,-0.00009251
 ,0.00003651,-0.00001681,0.00004114,0.00004502,-0.00000241,0.00004045,-
 0.00004552,-0.00000172,-0.00005727,-0.00000280,-0.00000061,-0.00000063
 ,0.00000059,0.00000764,0.00000581,0.00001159,0.00001685,-0.00001035,-0
 .00000046,0.00000130,-0.00000806,-0.00000167,0.00000183,-0.00000032,0.
 00065974,0.00029851,0.00162151,-0.00092925,0.00378537,-0.01016169,-0.0
 4242901,0.00691113,-0.00362450,-0.00060441,0.00020724,0.00136243,-0.00
 020858,0.01102341,-0.01331287,-0.00018061,0.00010314,-0.00002598,0.002
 94459,-0.01659582,0.01865348,-0.00004804,0.00004943,0.00008097,0.04250
 231,-0.00151030,0.00069883,-0.00074735,0.00085997,0.00011085,0.0005550
 6,-0.00012001,-0.00000894,-0.00009022,0.00010848,-0.00001219,0.0000307
 9,-0.00004239,-0.00002209,-0.00009881,-0.00003800,0.00002525,0.0000474
 5,0.00003791,0.00012668,0.00002028,0.00000936,0.00002016,0.00002248,0.
 00000226,0.00001875,0.00002356,0.00001425,0.00002593,0.00001717,0.0000
 4060,0.00004361,0.00004439,0.00005238,-0.00014632,-0.00014991,-0.00009
 537,-0.00019674,-0.00002821,0.00025386,-0.00011955,0.00022552,0.000060
 25,0.00010637,0.00007780,-0.00000384,-0.00000956,-0.00002790,-0.000010
 61,-0.00002687,-0.00001052,0.00000299,-0.00001183,0.00001186,-0.000003
 08,0.00000053,-0.00000124,-0.00001350,-0.00000732,-0.00000018,0.000002
 39,-0.00000197,-0.00000792,-0.00000849,-0.00001573,0.00000662,0.000009
 48,0.00001163,0.00000201,-0.00002974,0.00001975,-0.00004884,-0.0000599
 9,-0.00004600,0.00002157,0.00000733,0.00000135,0.00001424,-0.00001345,
 -0.00000181,-0.00000636,-0.00001645,0.00000077,-0.00001774,-0.00000004
 ,0.00000219,-0.00000130,0.00000405,0.00000018,-0.00000221,0.00000017,-
 0.00000294,0.00000328,-0.00000246,-0.00000235,-0.00000393,0.00000004,-
 0.00000022,-0.00000071,0.00026141,-0.00051883,0.00333163,-0.00064193,0
 .00646551,-0.01768997,0.00485128,-0.17214464,0.13463539,-0.00031746,0.
 00174283,-0.00010946,-0.00170500,-0.01026165,0.01334614,-0.00007666,0.
 00002933,0.00011804,0.00284172,-0.00516719,0.00490558,0.00004418,-0.00
 010310,0.00011465,-0.00492026,0.17962060,-0.00045387,-0.00059981,0.000
 62116,-0.00026367,0.00007505,-0.00119187,0.00028787,0.00010092,-0.0000
 6538,0.00002726,0.00011674,-0.00007459,0.00003014,-0.00002284,0.000077
 81,0.00000402,-0.00001805,-0.00005537,0.00000405,-0.00007671,0.0000272
 3,-0.00000921,-0.00002464,-0.00001721,-0.00000219,-0.00000004,-0.00001
 446,0.00000286,-0.00000470,-0.00000773,-0.00002271,-0.00002491,-0.0000
 3580,-0.00001045,0.00003101,0.00011647,0.00001967,0.00009849,-0.000029
 08,-0.00006708,0.00004736,-0.00009562,0.00000218,-0.00005066,-0.000014
 53,0.00000802,-0.00000672,0.00001431,0.00000293,0.00001373,0.00000738,
 -0.00001653,0.00001554,-0.00001388,0.00000284,-0.00000133,0.00000024,0
 .00000879,0.00000316,-0.00000290,-0.00000189,0.00000028,0.00000202,-0.
 00000628,0.,0.00000202,-0.00001317,-0.00000193,-0.00000450,-0.00014355
 ,-0.00007178,0.00001015,0.00006697,0.00000310,0.00004149,-0.00000818,-
 0.00000680,-0.00000470,-0.00002814,-0.00000896,-0.00001583,0.00000297,
 0.00000427,0.00000412,0.00000106,0.00000032,-0.00000008,-0.00000140,-0
 .00000264,-0.00000351,-0.00000735,-0.00000966,0.00000639,0.00000332,0.
 00000110,-0.00000003,0.00000159,0.00000050,-0.00000012,0.00044806,-0.0
 0048909,0.00457072,-0.00153406,0.00853526,-0.02562145,-0.00333897,0.13
 673255,-0.17092583,-0.00019940,0.00193821,0.00179544,0.00073104,-0.007
 03086,0.00700127,-0.00037503,0.00031991,0.00040959,-0.00120081,0.00004
 835,-0.00061295,0.00004334,-0.00009479,0.00004593,0.00547321,-0.138312
 34,0.18376705,-0.00143697,0.00018185,0.00053162,-0.00052533,-0.0001155
 7,-0.00026270,0.00003427,-0.00015150,-0.00007825,0.00038293,0.00037203
 ,0.00004857,-0.00002905,-0.00036618,0.00002849,-0.00009830,0.00003928,
 -0.00004241,0.00001851,0.00004106,-0.00000506,0.00001116,-0.00005063,-
 0.00004117,0.00000022,0.00001054,0.00000115,0.00002466,0.00004410,0.00
 001207,0.00000315,0.00001917,-0.00001495,0.00022810,-0.00019578,0.0000
 3436,-0.00004127,-0.00002064,-0.00000519,0.00018333,-0.00005337,0.0001
 6328,-0.00005381,0.00009087,0.00001024,0.00003009,-0.00004301,0.000002
 88,-0.00000957,-0.00002661,-0.00002670,-0.00000815,0.00001680,-0.00002
 249,0.00000142,0.00000281,0.00000189,0.00000851,-0.00000440,0.00000002
 ,0.00000359,-0.00000283,-0.00000454,-0.00000739,0.00001400,0.00000106,
 -0.00003511,0.00004933,-0.00000564,0.00017711,0.00009537,0.00001618,-0
 .00026046,-0.00006149,-0.00009972,0.00004750,-0.00000081,0.00001809,0.
 00003113,-0.00000489,0.00002540,-0.00001655,0.00000360,-0.00001500,-0.
 00000187,0.00000325,-0.00000188,0.00000628,0.00001003,0.00000858,0.000
 00912,0.00001126,-0.00000652,-0.00000677,-0.00000432,-0.00000526,-0.00
 000324,-0.00000008,0.00000177,0.00177465,-0.00302763,0.00129000,-0.003
 28760,0.01608652,-0.01349591,-0.00002730,-0.00195120,-0.00059804,-0.04
 056102,-0.00930037,0.00964847,-0.00018304,-0.00017872,-0.00017732,-0.0
 0019328,0.00496426,-0.00793404,0.00000542,-0.00012788,0.00002190,0.001
 80486,-0.01183119,0.02264181,0.00044203,0.00016470,0.00053173,0.041558
 02,-0.00000672,0.00021193,-0.00000365,0.00005672,-0.00075728,0.0002930
 2,-0.00002083,-0.00010772,-0.00001569,0.00006477,-0.00011502,0.0001082
 0,-0.00012077,0.00004614,-0.00002258,-0.00018307,-0.00024965,-0.000268
 23,0.00003744,-0.00001352,0.00000047,0.00001261,-0.00005920,-0.0000324
 0,-0.00000303,0.00001335,-0.00000845,0.00008862,0.00009873,0.00006048,
 0.00000511,0.00001168,-0.00000523,0.00001787,-0.00069480,0.00034524,-0
 .00002794,-0.00000977,0.00002575,0.00008223,-0.00004585,0.00007159,-0.
 00003409,0.00006013,-0.00001870,-0.00001341,0.00000990,-0.00001980,0.0
 0000541,-0.00001348,-0.00000131,0.00000130,-0.00000320,0.00001477,-0.0
 0000194,0.00000157,-0.00000012,-0.00000980,-0.00000474,0.00000380,0.00
 000303,-0.00000145,-0.00000347,-0.00000725,0.00000398,-0.00000408,0.00
 000091,0.00000298,0.00000063,0.00014865,0.00005105,0.00000540,-0.00008
 509,0.00000183,-0.00004483,0.00001861,0.00000605,0.00000877,0.00003093
 ,0.00000979,0.00001766,-0.00001071,0.00000058,-0.00000821,-0.00000106,
 0.00000016,-0.00000043,0.00000367,0.00000405,0.00000290,0.00000767,0.0
 0001076,-0.00000764,-0.00000695,-0.00000374,-0.00000012,-0.00000187,0.
 ,0.00000034,-0.00114226,0.00405141,-0.00226819,0.00397948,-0.02113227,
 0.01682714,-0.00075096,0.00177081,0.00166312,-0.00918558,-0.09293610,0
 .10996998,0.00014349,0.00053157,0.00014035,0.00076468,0.00934745,-0.01
 596527,-0.00004114,0.00000899,-0.00013769,0.00102511,-0.00291257,0.004
 69723,-0.00014207,-0.00024325,-0.00122661,0.00529825,0.10304872,0.0007
 7739,-0.00033168,0.00137528,-0.00110493,0.00033509,-0.00040482,-0.0000
 0477,0.00005366,0.00001928,0.00052481,0.00048755,-0.00033987,0.0000032
 0,-0.00024891,0.00018463,-0.00005580,0.00011305,-0.00022303,-0.0000085
 5,-0.00007067,-0.00000654,-0.00002874,-0.00015892,-0.00016770,-0.00001
 105,-0.00000229,-0.00002875,0.00010996,0.00006360,-0.00003958,-0.00003
 095,-0.00002930,-0.00005757,-0.00000453,0.00034773,0.00058938,0.000107
 94,0.00023455,0.00002040,-0.00019433,0.00009382,-0.00020589,-0.0000767
 1,-0.00008211,-0.00008106,0.00001314,0.00000236,0.00003048,0.00000623,
 0.00001828,0.00000680,-0.00001465,0.00001838,-0.00002835,0.00000208,-0
 .00000084,-0.00000132,0.00001798,0.00000490,-0.00000479,-0.00000218,0.
 00000081,0.00000315,-0.00000011,0.00001465,0.00001404,0.00000115,-0.00
 000076,0.00000820,-0.00001886,-0.00005891,0.00003276,0.00003950,0.0000
 3316,0.00000798,0.00000627,-0.00000632,-0.00000051,0.00000258,-0.00000
 357,-0.00000065,-0.00001000,0.00000962,-0.00000094,0.00000073,-0.00000
 023,-0.00000026,0.00000202,-0.00000071,-0.00000279,-0.00000171,-0.0000
 0029,-0.00000063,-0.00000271,-0.00000323,0.00000150,-0.00000025,-0.000
 00011,0.00000157,0.00003248,0.00092348,-0.00081171,0.00014739,-0.00427
 710,0.00381347,0.00006312,-0.00067723,0.00119330,0.01187690,0.10832027
 ,-0.25310675,-0.00006990,-0.00007998,-0.00011908,0.00199004,0.00982410
 ,-0.01241139,-0.00002717,0.00003437,-0.00011121,-0.00196235,-0.0004857
 9,-0.00157305,0.00010210,-0.00022039,0.00028659,-0.01219676,-0.1141941
 0,0.26213941\\0.00000054,-0.00000001,-0.00000026,0.00000248,0.00000162
 ,-0.00000318,0.00000002,-0.00000044,0.00000005,0.00000006,0.00000067,-
 0.00000035,0.00000123,0.00000085,-0.00000139,0.00000114,0.00000188,-0.
 00000275,0.00000347,0.00000002,-0.00000097,0.00000009,0.00000225,-0.00
 000308,0.00000302,-0.00000032,-0.00000024,0.00000213,0.00000226,-0.000
 00334,0.00000393,0.00000074,-0.00000124,0.00000129,0.00000220,-0.00000
 327,0.00000290,0.00000175,-0.00000186,-0.00000134,-0.00000124,0.000001
 45,-0.00000249,-0.00000153,0.00000216,-0.00000342,-0.00000071,0.000001
 51,-0.00000120,-0.00000246,0.00000289,-0.00000406,-0.00000038,0.000001
 00,-0.00000049,-0.00000279,0.00000387,-0.00000430,-0.00000152,0.000002
 24,-0.00000225,-0.00000257,0.00000401,-0.00000275,-0.00000059,0.000001
 59,-0.00000090,-0.00000181,0.00000326,0.00000235,-0.00000090,0.0000014
 6,0.00000148,-0.00000218,0.00000202,0.00000086,-0.00000139,0.00000226,
 0.00000343,-0.00000267,0.00000319,-0.00000030,-0.00000131,0.00000167,0
 .00000413,-0.00000284,0.00000326,0.00000062,-0.00000215,0.00000295,0.0
 0000308,-0.00000311,0.00000392,0.00000195,-0.00000155,0.00000188,0.000
 00403,-0.00000204,0.00000261,-0.00000291,0.00000064,-0.00000132,-0.000
 00239,0.00000226,-0.00000170,-0.00000198,0.00000206,-0.00000291,-0.000
 00147,0.00000208,-0.00000361,-0.00000216,0.00000165,-0.00000203,-0.000
 00228,0.00000245,-0.00000282,-0.00000248,0.00000281,-0.00000354,-0.000
 00260,0.00000307,-0.00000425,-0.00000118,0.00000198,-0.00000236,-0.000
 00128,0.00000331,-0.00000279\\\@
 The archive entry for this job was punched.


 YOU ARE IN A MAZE OF TWISTY LITTLE PASSAGES.
 Job cpu time:       0 days  1 hours 29 minutes 38.7 seconds.
 Elapsed time:       0 days  0 hours 22 minutes 25.2 seconds.
 File lengths (MBytes):  RWF=   1016 Int=      0 D2E=      0 Chk=     48 Scr=      1
 Normal termination of Gaussian 16 at Fri Nov  6 11:49:00 2020.
