 Entering Gaussian System, Link 0=g16
 Input=02-PbBr2_acn_22800193.com
 Output=02-PbBr2_acn_22800193.log
 Initial command:
 /cm/shared/uniol/software/gaussian/g16.c01/g16/l1.exe "/scratch/22800193_edba4025/Gau-3827.inp" -scrdir="/scratch/22800193_edba4025/"
 Entering Link 1 = /cm/shared/uniol/software/gaussian/g16.c01/g16/l1.exe PID=      3828.
  
 Copyright (c) 1988-2019, Gaussian, Inc.  All Rights Reserved.
  
 This is part of the Gaussian(R) 16 program.  It is based on
 the Gaussian(R) 09 system (copyright 2009, Gaussian, Inc.),
 the Gaussian(R) 03 system (copyright 2003, Gaussian, Inc.),
 the Gaussian(R) 98 system (copyright 1998, Gaussian, Inc.),
 the Gaussian(R) 94 system (copyright 1995, Gaussian, Inc.),
 the Gaussian 92(TM) system (copyright 1992, Gaussian, Inc.),
 the Gaussian 90(TM) system (copyright 1990, Gaussian, Inc.),
 the Gaussian 88(TM) system (copyright 1988, Gaussian, Inc.),
 the Gaussian 86(TM) system (copyright 1986, Carnegie Mellon
 University), and the Gaussian 82(TM) system (copyright 1983,
 Carnegie Mellon University). Gaussian is a federally registered
 trademark of Gaussian, Inc.
  
 This software contains proprietary and confidential information,
 including trade secrets, belonging to Gaussian, Inc.
  
 This software is provided under written license and may be
 used, copied, transmitted, or stored only in accord with that
 written license.
  
 The following legend is applicable only to US Government
 contracts under FAR:
  
                    RESTRICTED RIGHTS LEGEND
  
 Use, reproduction and disclosure by the US Government is
 subject to restrictions as set forth in subparagraphs (a)
 and (c) of the Commercial Computer Software - Restricted
 Rights clause in FAR 52.227-19.
  
 Gaussian, Inc.
 340 Quinnipiac St., Bldg. 40, Wallingford CT 06492
  
  
 ---------------------------------------------------------------
 Warning -- This program may not be used in any manner that
 competes with the business of Gaussian, Inc. or will provide
 assistance to any competitor of Gaussian, Inc.  The licensee
 of this program is prohibited from giving any competitor of
 Gaussian, Inc. access to this program.  By using this program,
 the user acknowledges that Gaussian, Inc. is engaged in the
 business of creating and licensing software in the field of
 computational chemistry and represents and warrants to the
 licensee that it is not a competitor of Gaussian, Inc. and that
 it will not use this program in any manner prohibited above.
 ---------------------------------------------------------------
  

 Cite this work as:
 Gaussian 16, Revision C.01,
 M. J. Frisch, G. W. Trucks, H. B. Schlegel, G. E. Scuseria, 
 M. A. Robb, J. R. Cheeseman, G. Scalmani, V. Barone, 
 G. A. Petersson, H. Nakatsuji, X. Li, M. Caricato, A. V. Marenich, 
 J. Bloino, B. G. Janesko, R. Gomperts, B. Mennucci, H. P. Hratchian, 
 J. V. Ortiz, A. F. Izmaylov, J. L. Sonnenberg, D. Williams-Young, 
 F. Ding, F. Lipparini, F. Egidi, J. Goings, B. Peng, A. Petrone, 
 T. Henderson, D. Ranasinghe, V. G. Zakrzewski, J. Gao, N. Rega, 
 G. Zheng, W. Liang, M. Hada, M. Ehara, K. Toyota, R. Fukuda, 
 J. Hasegawa, M. Ishida, T. Nakajima, Y. Honda, O. Kitao, H. Nakai, 
 T. Vreven, K. Throssell, J. A. Montgomery, Jr., J. E. Peralta, 
 F. Ogliaro, M. J. Bearpark, J. J. Heyd, E. N. Brothers, K. N. Kudin, 
 V. N. Staroverov, T. A. Keith, R. Kobayashi, J. Normand, 
 K. Raghavachari, A. P. Rendell, J. C. Burant, S. S. Iyengar, 
 J. Tomasi, M. Cossi, J. M. Millam, M. Klene, C. Adamo, R. Cammi, 
 J. W. Ochterski, R. L. Martin, K. Morokuma, O. Farkas, 
 J. B. Foresman, and D. J. Fox, Gaussian, Inc., Wallingford CT, 2019.
 
 ******************************************
 Gaussian 16:  ES64L-G16RevC.01  3-Jul-2019
                11-Nov-2020 
 ******************************************
 %oldChk=01-PbBr2_acn
 %chk=02-PbBr2_acn
 %mem=16GB
 %NProcShared=7
 Will use up to    7 processors via shared memory.
 Copying data from "01-PbBr2_acn.chk" to current chk file "02-PbBr2_acn.chk"
 IOpt=  2 FromEx=T IUOpen= 4 IOptOp= 5 NList=   0 IFRang= 0 IUIn= 4 IUOut= 2.
 ----------------------------------------------------------------------
 # cam-b3lyp/gen pseudo=read TD=NStates=10 Geom=Check Guess=Read empiri
 caldispersion=gd3bj SCRF=(Solvent=CH3CN)
 ----------------------------------------------------------------------
 1/29=2,38=1,172=1/1;
 2/12=2,40=1/2;
 3/5=7,11=9,14=-4,16=1,17=8,25=1,30=1,70=2201,72=2,74=-40,116=-2,124=41/1,2,3,8;
 4/5=1/1;
 5/5=2,38=6,53=2/2;
 8/6=1,10=1,108=10/1;
 9/41=10,42=1,70=2/14;
 6/7=2,8=2,9=2,10=2/1;
 99/5=1,9=1/99;
 ---------
 PbBr2_acn
 ---------
 Structure from the checkpoint file:  "02-PbBr2_acn.chk"
 Charge =  0 Multiplicity = 1
 Redundant internal coordinates found in file.  (old form).
 Pb,0,-0.1803901869,-0.245835917,-0.6867664274
 Br,0,0.6475585649,-2.2100433709,1.2160880565
 Br,0,-1.9940921456,1.0993975934,1.1019360764
 C,0,-0.3826104023,4.254279085,-0.5171577031
 H,0,0.597755523,4.6646949783,-0.2069967442
 H,0,-0.9857704445,5.0595857436,-0.9785036383
 H,0,-0.9159316767,3.857063386,0.3711895056
 C,0,-0.1937846134,3.1630945576,-1.4553471897
 N,0,-0.0481950161,2.2533181318,-2.1864277088
 C,0,4.1466901777,-1.3822917743,-0.296840587
 H,0,4.7381847063,-0.4897813449,-0.0151262395
 H,0,4.8275785249,-2.1627344551,-0.6871666769
 H,0,3.6133373391,-1.7711342398,0.5952400839
 C,0,3.1545545258,-1.0296616478,-1.2954795925
 N,0,2.3205067175,-0.7432944791,-2.0738514839
 C,0,-4.5401003374,-1.653700275,0.0479333071
 H,0,-5.3924936821,-1.4739267444,-0.6348307605
 H,0,-4.7401356601,-2.5571491453,0.6552339015
 H,0,-4.4108388771,-0.7785266415,0.7179410377
 C,0,-3.3149331911,-1.8194876913,-0.7098481659
 N,0,-2.3085553556,-1.929572622,-1.3077859398
 C,0,3.3522416484,2.6305610121,1.8092428336
 H,0,4.3623430854,2.2102319357,1.6393013942
 H,0,3.3277103591,3.6776376798,1.4505700821
 H,0,3.1273041063,2.610902337,2.8929609852
 C,0,2.3688667607,1.8440352573,1.090661886
 N,0,1.5750295499,1.2082586508,0.5098697076
 Recover connectivity data from disk.
                           ----------------------------
                           !    Current Parameters    !
                           ! (Angstroms and Degrees)  !
 --------------------------                            --------------------------
 ! Name  Definition              Value                                          !
 --------------------------------------------------------------------------------
 ! R1    R(1,2)                  2.8574                                         !
 ! R2    R(1,3)                  2.8807                                         !
 ! R3    R(1,9)                  2.9176                                         !
 ! R4    R(1,15)                 2.9027                                         !
 ! R5    R(1,21)                 2.7838                                         !
 ! R6    R(1,27)                 2.5745                                         !
 ! R7    R(2,13)                 3.0617                                         !
 ! R8    R(3,7)                  3.0498                                         !
 ! R9    R(4,5)                  1.1071                                         !
 ! R10   R(4,6)                  1.1069                                         !
 ! R11   R(4,7)                  1.1097                                         !
 ! R12   R(4,8)                  1.4514                                         !
 ! R13   R(8,9)                  1.1762                                         !
 ! R14   R(10,11)                1.1072                                         !
 ! R15   R(10,12)                1.1068                                         !
 ! R16   R(10,13)                1.1097                                         !
 ! R17   R(10,14)                1.4512                                         !
 ! R18   R(14,15)                1.1762                                         !
 ! R19   R(16,17)                1.1068                                         !
 ! R20   R(16,18)                1.1068                                         !
 ! R21   R(16,19)                1.1098                                         !
 ! R22   R(16,20)                1.4501                                         !
 ! R23   R(20,21)                1.1758                                         !
 ! R24   R(22,23)                1.1072                                         !
 ! R25   R(22,24)                1.1071                                         !
 ! R26   R(22,25)                1.107                                          !
 ! R27   R(22,26)                1.4498                                         !
 ! R28   R(26,27)                1.1712                                         !
 ! A1    A(2,1,3)               95.1602                                         !
 ! A2    A(2,1,9)              156.6372                                         !
 ! A3    A(2,1,15)              87.1783                                         !
 ! A4    A(2,1,21)              87.3809                                         !
 ! A5    A(2,1,27)              83.1742                                         !
 ! A6    A(3,1,9)               87.0009                                         !
 ! A7    A(3,1,15)             156.8054                                         !
 ! A8    A(3,1,21)              86.5398                                         !
 ! A9    A(3,1,27)              82.9308                                         !
 ! A10   A(9,1,15)              82.0759                                         !
 ! A11   A(9,1,21)             115.9801                                         !
 ! A12   A(9,1,27)              73.9908                                         !
 ! A13   A(15,1,21)            116.6404                                         !
 ! A14   A(15,1,27)             74.4215                                         !
 ! A15   A(1,2,13)              92.6995                                         !
 ! A16   A(1,3,7)               92.9174                                         !
 ! A17   A(5,4,6)              109.2439                                         !
 ! A18   A(5,4,7)              109.5119                                         !
 ! A19   A(5,4,8)              110.1564                                         !
 ! A20   A(6,4,7)              109.4028                                         !
 ! A21   A(6,4,8)              110.3931                                         !
 ! A22   A(7,4,8)              108.1128                                         !
 ! A23   A(3,7,4)              133.2667                                         !
 ! A24   A(1,9,8)              109.7229                                         !
 ! A25   A(11,10,12)           109.2381                                         !
 ! A26   A(11,10,13)           109.5536                                         !
 ! A27   A(11,10,14)           110.1489                                         !
 ! A28   A(12,10,13)           109.3954                                         !
 ! A29   A(12,10,14)           110.4406                                         !
 ! A30   A(13,10,14)           108.0442                                         !
 ! A31   A(2,13,10)            132.7505                                         !
 ! A32   A(1,15,14)            109.6593                                         !
 ! A33   A(17,16,18)           109.3819                                         !
 ! A34   A(17,16,19)           109.5144                                         !
 ! A35   A(17,16,20)           110.2967                                         !
 ! A36   A(18,16,19)           109.4813                                         !
 ! A37   A(18,16,20)           110.2494                                         !
 ! A38   A(19,16,20)           107.8939                                         !
 ! A39   A(1,21,20)            118.9639                                         !
 ! A40   A(23,22,24)           109.2415                                         !
 ! A41   A(23,22,25)           109.2021                                         !
 ! A42   A(23,22,26)           109.6801                                         !
 ! A43   A(24,22,25)           109.2363                                         !
 ! A44   A(24,22,26)           109.724                                          !
 ! A45   A(25,22,26)           109.7401                                         !
 ! A46   L(21,1,27,2,-1)       170.5551                                         !
 ! A47   L(4,8,9,3,-1)         178.1657                                         !
 ! A48   L(10,14,15,2,-1)      178.0124                                         !
 ! A49   L(16,20,21,3,-1)      178.436                                          !
 ! A50   L(22,26,27,4,-1)      180.026                                          !
 ! A51   L(1,27,26,4,-1)       181.3848                                         !
 ! A52   L(21,1,27,2,-2)       191.4888                                         !
 ! A53   L(4,8,9,3,-2)         180.5802                                         !
 ! A54   L(10,14,15,2,-2)      179.3209                                         !
 ! A55   L(16,20,21,3,-2)      179.9177                                         !
 ! A56   L(22,26,27,4,-2)      179.9724                                         !
 ! A57   L(1,27,26,4,-2)       178.2977                                         !
 ! D1    D(3,1,2,13)          -131.9168                                         !
 ! D2    D(9,1,2,13)           -37.5245                                         !
 ! D3    D(15,1,2,13)           24.9482                                         !
 ! D4    D(21,1,2,13)          141.7983                                         !
 ! D5    D(27,1,2,13)          -49.6905                                         !
 ! D6    D(2,1,3,7)            132.6683                                         !
 ! D7    D(9,1,3,7)            -24.0077                                         !
 ! D8    D(15,1,3,7)            37.7775                                         !
 ! D9    D(21,1,3,7)          -140.2795                                         !
 ! D10   D(27,1,3,7)            50.2216                                         !
 ! D11   D(2,1,9,8)            -65.2723                                         !
 ! D12   D(3,1,9,8)             30.8029                                         !
 ! D13   D(15,1,9,8)          -128.6851                                         !
 ! D14   D(21,1,9,8)           115.4803                                         !
 ! D15   D(27,1,9,8)           -52.6986                                         !
 ! D16   D(2,1,15,14)          -32.0787                                         !
 ! D17   D(3,1,15,14)           64.4448                                         !
 ! D18   D(9,1,15,14)          127.1249                                         !
 ! D19   D(21,1,15,14)        -117.7251                                         !
 ! D20   D(27,1,15,14)          51.618                                          !
 ! D21   D(2,1,21,20)           89.7271                                         !
 ! D22   D(3,1,21,20)           -5.6071                                         !
 ! D23   D(9,1,21,20)          -90.5716                                         !
 ! D24   D(15,1,21,20)         175.2489                                         !
 ! D25   D(2,1,22,23)           66.1498                                         !
 ! D26   D(2,1,22,24)         -173.2647                                         !
 ! D27   D(2,1,22,25)          -53.2333                                         !
 ! D28   D(3,1,22,23)          162.4323                                         !
 ! D29   D(3,1,22,24)          -76.9822                                         !
 ! D30   D(3,1,22,25)           43.0492                                         !
 ! D31   D(9,1,22,23)         -108.7088                                         !
 ! D32   D(9,1,22,24)           11.8768                                         !
 ! D33   D(9,1,22,25)          131.9082                                         !
 ! D34   D(15,1,22,23)         -23.037                                          !
 ! D35   D(15,1,22,24)          97.5485                                         !
 ! D36   D(15,1,22,25)        -142.42                                           !
 ! D37   D(1,2,13,10)          -24.223                                          !
 ! D38   D(1,3,7,4)             23.4044                                         !
 ! D39   D(5,4,7,3)           -120.8722                                         !
 ! D40   D(6,4,7,3)            119.423                                          !
 ! D41   D(8,4,7,3)             -0.836                                          !
 ! D42   D(5,4,9,1)             96.6197                                         !
 ! D43   D(6,4,9,1)           -142.114                                          !
 ! D44   D(7,4,9,1)            -22.6206                                         !
 ! D45   D(11,10,13,2)         120.797                                          !
 ! D46   D(12,10,13,2)        -119.4844                                         !
 ! D47   D(14,10,13,2)           0.7867                                         !
 ! D48   D(11,10,15,1)         -95.8273                                         !
 ! D49   D(12,10,15,1)         142.842                                          !
 ! D50   D(13,10,15,1)          23.3741                                         !
 ! D51   D(17,16,21,1)         124.025                                          !
 ! D52   D(18,16,21,1)        -114.6177                                         !
 ! D53   D(19,16,21,1)           4.6501                                         !
 --------------------------------------------------------------------------------
                          Input orientation:                          
 ---------------------------------------------------------------------
 Center     Atomic      Atomic             Coordinates (Angstroms)
 Number     Number       Type             X           Y           Z
 ---------------------------------------------------------------------
      1         82           0       -0.180390   -0.245836   -0.686766
      2         35           0        0.647559   -2.210043    1.216088
      3         35           0       -1.994092    1.099398    1.101936
      4          6           0       -0.382610    4.254279   -0.517158
      5          1           0        0.597756    4.664695   -0.206997
      6          1           0       -0.985770    5.059586   -0.978504
      7          1           0       -0.915932    3.857063    0.371190
      8          6           0       -0.193785    3.163095   -1.455347
      9          7           0       -0.048195    2.253318   -2.186428
     10          6           0        4.146690   -1.382292   -0.296841
     11          1           0        4.738185   -0.489781   -0.015126
     12          1           0        4.827579   -2.162734   -0.687167
     13          1           0        3.613337   -1.771134    0.595240
     14          6           0        3.154555   -1.029662   -1.295480
     15          7           0        2.320507   -0.743294   -2.073851
     16          6           0       -4.540100   -1.653700    0.047933
     17          1           0       -5.392494   -1.473927   -0.634831
     18          1           0       -4.740136   -2.557149    0.655234
     19          1           0       -4.410839   -0.778527    0.717941
     20          6           0       -3.314933   -1.819488   -0.709848
     21          7           0       -2.308555   -1.929573   -1.307786
     22          6           0        3.352242    2.630561    1.809243
     23          1           0        4.362343    2.210232    1.639301
     24          1           0        3.327710    3.677638    1.450570
     25          1           0        3.127304    2.610902    2.892961
     26          6           0        2.368867    1.844035    1.090662
     27          7           0        1.575030    1.208259    0.509870
 ---------------------------------------------------------------------
                    Distance matrix (angstroms):
                    1          2          3          4          5
     1  Pb   0.000000
     2  Br   2.857353   0.000000
     3  Br   2.880733   4.236006   0.000000
     4  C    4.507848   6.771474   3.895076   0.000000
     5  H    4.994898   7.020661   4.598078   1.107140   0.000000
     6  H    5.374128   7.767336   4.585633   1.106870   1.805191
     7  H    4.300474   6.322036   3.049777   1.109672   1.810474
     8  C    3.494525   6.059293   3.746952   1.451392   2.107064
     9  N    2.917573   5.655332   3.991414   2.627193   3.185928
    10  C    4.490790   3.901032   6.769384   7.234227   7.012065
    11  H    4.970210   4.605259   7.006916   6.998620   6.614272
    12  H    5.362299   4.593167   7.770301   8.267589   8.045853
    13  H    4.285142   3.061689   6.319807   7.315096   7.152427
    14  C    3.479479   3.739826   6.065398   6.406040   6.336222
    15  N    2.902750   3.971626   5.665413   5.891170   5.974895
    16  C    4.639929   5.346579   3.895206   7.246259   8.147679
    17  H    5.355084   6.360031   4.602987   7.610855   8.587712
    18  H    5.285302   5.427918   4.594631   8.170562   9.021727
    19  H    4.489283   5.280604   3.084593   6.563629   7.454542
    20  C    3.507460   4.423020   3.680635   6.747317   7.589902
    21  N    2.783832   3.897078   3.883337   6.524905   7.289907
    22  C    5.194536   5.576611   5.606071   4.690173   3.973678
    23  H    5.663858   5.789436   6.475105   5.598484   4.858531
    24  H    5.680548   6.473251   5.923719   4.239216   3.342823
    25  H    5.649446   5.674730   5.632150   5.162276   4.497379
    26  C    3.745067   4.406153   4.426062   3.995621   3.574475
    27  N    2.574457   3.611611   3.619534   3.763692   3.662774
                    6          7          8          9         10
     6  H    0.000000
     7  H    1.809035   0.000000
     8  C    2.109810   2.083105   0.000000
     9  N    3.195820   3.141078   1.176167   0.000000
    10  C    8.264660   7.316232   6.390806   5.863895   0.000000
    11  H    8.030394   7.142362   6.304130   5.928623   1.107160
    12  H    9.275873   8.387252   7.359935   6.747034   1.106822
    13  H    8.383746   7.227799   6.560922   6.110705   1.109717
    14  C    7.370326   6.574703   5.368066   4.672189   1.451193
    15  N    6.767915   6.133193   4.686586   3.821401   2.626981
    16  C    7.665184   6.603606   6.659717   6.358803   8.697865
    17  H    7.888226   7.033572   7.014399   6.697861   9.545610
    18  H    8.647486   7.473108   7.605593   7.295885   9.014566
    19  H    6.978006   5.815781   6.167909   6.054759   8.638612
    20  C    7.267656   6.256763   5.926505   5.425828   7.485823
    21  N    7.120851   6.184134   5.516275   4.835061   6.556807
    22  C    5.700004   4.667934   4.849272   5.260291   4.601057
    23  H    6.601063   5.672772   5.589552   5.838742   4.086732
    24  H    5.139679   4.382437   4.594566   5.162671   5.415446
    25  H    6.156433   4.925445   5.499303   6.000987   5.211486
    26  C    5.086728   3.919161   3.845681   4.092556   3.936370
    27  N    4.858567   3.638720   3.288186   3.316177   3.738338
                   11         12         13         14         15
    11  H    0.000000
    12  H    1.805104   0.000000
    13  H    1.810993   1.808950   0.000000
    14  C    2.106813   2.110191   2.082086   0.000000
    15  N    3.185559   3.197360   3.138776   1.176225   0.000000
    16  C    9.351217   9.410255   8.172630   7.835936   7.238697
    17  H   10.197216  10.243392   9.094306   8.584047   7.880037
    18  H    9.724297   9.669476   8.390586   8.274336   7.783999
    19  H    9.182886   9.446625   8.086268   7.832759   7.287411
    20  C    8.191670   8.149775   7.050286   6.543780   5.897193
    21  N    7.307565   7.166864   6.222172   5.536746   4.839662
    22  C    3.871136   5.602175   4.573499   4.803708   5.246504
    23  H    3.188802   4.975111   4.183581   4.535262   5.165261
    24  H    4.637358   6.397614   5.522888   5.452471   5.742878
    25  H    4.546003   6.204503   4.971719   5.549548   6.047378
    26  C    3.504730   5.025947   3.855334   3.816950   4.087879
    27  N    3.628293   4.834828   3.610924   3.280621   3.322636
                   16         17         18         19         20
    16  C    0.000000
    17  H    1.106824   0.000000
    18  H    1.106819   1.806435   0.000000
    19  H    1.109751   1.810309   1.809936   0.000000
    20  C    1.450087   2.107439   2.106845   2.079229   0.000000
    21  N    2.625619   3.189225   3.187457   3.138164   1.175774
    22  C    9.151293   9.964472   9.681459   8.548581   8.402379
    23  H    9.834425  10.672467  10.322375   9.313984   8.983191
    24  H    9.606925  10.340671  10.227183   8.959871   8.888786
    25  H    9.223346  10.085539   9.675370   8.546493   8.608775
    26  C    7.813787   8.615388   8.372451   7.278816   6.997772
    27  N    6.767496   7.553200   7.353961   6.310407   5.879345
                   21         22         23         24         25
    21  N    0.000000
    22  C    7.909191   0.000000
    23  H    8.385952   1.107186   0.000000
    24  H    8.415273   1.107076   1.805371   0.000000
    25  H    8.234729   1.106991   1.804860   1.805153   0.000000
    26  C    6.470776   1.449830   2.099775   2.100241   2.100380
    27  N    5.313388   2.621030   3.169966   3.170905   3.171134
                   26         27
    26  C    0.000000
    27  N    1.171200   0.000000
 Stoichiometry    C8H12Br2N4Pb
 Framework group  C1[X(C8H12Br2N4Pb)]
 Deg. of freedom    75
 Full point group                 C1      NOp   1
 Largest Abelian subgroup         C1      NOp   1
 Largest concise Abelian subgroup C1      NOp   1
                         Standard orientation:                         
 ---------------------------------------------------------------------
 Center     Atomic      Atomic             Coordinates (Angstroms)
 Number     Number       Type             X           Y           Z
 ---------------------------------------------------------------------
      1         82           0       -0.154219   -0.187434   -0.638251
      2         35           0        0.385375   -2.310000    1.196964
      3         35           0       -1.729489    1.360270    1.211549
      4          6           0        0.324012    4.284910   -0.338041
      5          1           0        1.357588    4.534055   -0.029165
      6          1           0       -0.155162    5.185118   -0.768367
      7          1           0       -0.255276    3.945665    0.545537
      8          6           0        0.338494    3.206479   -1.309286
      9          7           0        0.339302    2.307575   -2.067796
     10          6           0        3.955980   -1.971513   -0.337392
     11          1           0        4.677368   -1.186748   -0.038150
     12          1           0        4.508373   -2.833184   -0.758629
     13          1           0        3.377952   -2.302592    0.550157
     14          6           0        3.019556   -1.444115   -1.312544
     15          7           0        2.231356   -1.012549   -2.071488
     16          6           0       -4.669544   -0.946651    0.112996
     17          1           0       -5.491082   -0.620548   -0.553180
     18          1           0       -4.997899   -1.827718    0.696907
     19          1           0       -4.404367   -0.121345    0.805888
     20          6           0       -3.489832   -1.271517   -0.665139
     21          7           0       -2.516657   -1.513318   -1.279066
     22          6           0        3.792207    2.049897    1.892218
     23          1           0        4.726112    1.488068    1.697201
     24          1           0        3.922304    3.099114    1.563834
     25          1           0        3.576247    2.031609    2.977784
     26          6           0        2.695571    1.441816    1.164459
     27          7           0        1.810168    0.950121    0.576235
 ---------------------------------------------------------------------
 Rotational constants (GHZ):           0.2653704           0.2296732           0.1722843
 General basis read from cards:  (5D, 7F)
 ======================================================================================================
                                       Pseudopotential Parameters
 ======================================================================================================
  Center     Atomic      Valence      Angular      Power
  Number     Number     Electrons     Momentum     of R      Exponent        Coefficient   SO-Coeffient
 ======================================================================================================
    1         82            4
                                      G and up 
                                                     0      376.5803786       -0.17896050    0.00000000
                                                     1       86.4840014      -54.39723370    0.00000000
                                                     2       26.6784276     -199.70617590    0.00000000
                                                     2        9.4261986      -79.12239410    0.00000000
                                                     2        2.7101719      -24.98690200    0.00000000
                                                     2        0.8792031       -4.43979390    0.00000000
                                      S - G
                                                     0      132.4248796        2.81153860    0.00000000
                                                     1       47.2376044       65.03672050    0.00000000
                                                     2       17.6312727      212.78685450    0.00000000
                                                     2        5.4744712       72.10531750    0.00000000
                                                     2        1.2634856       33.01409400    0.00000000
                                                     2        0.7651447       -5.77084610    0.00000000
                                      P - G
                                                     0       67.8966454        4.87549110    0.00000000
                                                     1       24.9898225       63.91481020    0.00000000
                                                     2       10.7052939      148.10643580    0.00000000
                                                     2        3.2792568       47.31063010    0.00000000
                                                     2        0.8452522       21.03067020    0.00000000
                                                     2        0.6416245       -7.09307720    0.00000000
                                      D - G
                                                     0       68.8336005        3.21613880    0.00000000
                                                     1       24.2815874       55.73860860    0.00000000
                                                     2        9.4532762      121.41683510    0.00000000
                                                     2        2.4788185       19.34560640    0.00000000
                                                     2        2.4789161       15.36751680    0.00000000
                                                     2        0.5551738        6.12987240    0.00000000
                                      F - G
                                                     0      128.1021322        4.13536820    0.00000000
                                                     1       54.8029154       67.51284460    0.00000000
                                                     2       24.5529308      258.73731070    0.00000000
                                                     2        8.1144792      113.24782640    0.00000000
                                                     2        1.6931290       34.16802010    0.00000000
                                                     2        0.7670500       -6.55319560    0.00000000
    2         35            7
                                      F and up 
                                                     1      213.6143969      -28.00000000    0.00000000
                                                     2       41.0585380     -134.92688520    0.00000000
                                                     2        8.7086530      -41.92719130    0.00000000
                                                     2        2.6074661       -5.93364200    0.00000000
                                      S - F
                                                     0       54.1980682        3.00000000    0.00000000
                                                     1       32.9053558       27.34306420    0.00000000
                                                     2       13.6744890      118.80288470    0.00000000
                                                     2        3.0341152       43.43548760    0.00000000
                                      P - F
                                                     0       54.2563340        5.00000000    0.00000000
                                                     1       26.0095593       25.05042520    0.00000000
                                                     2       28.2012995       92.61574630    0.00000000
                                                     2        9.4341061       95.82490160    0.00000000
                                                     2        2.5321764       26.26849830    0.00000000
                                      D - F
                                                     0       87.6328721        3.00000000    0.00000000
                                                     1       61.7373377       22.55335570    0.00000000
                                                     2       32.4385104      178.12419880    0.00000000
                                                     2        8.7537199       76.99241620    0.00000000
                                                     2        1.6633189        9.48182700    0.00000000
    3         35            7
                                      F and up 
                                                     1      213.6143969      -28.00000000    0.00000000
                                                     2       41.0585380     -134.92688520    0.00000000
                                                     2        8.7086530      -41.92719130    0.00000000
                                                     2        2.6074661       -5.93364200    0.00000000
                                      S - F
                                                     0       54.1980682        3.00000000    0.00000000
                                                     1       32.9053558       27.34306420    0.00000000
                                                     2       13.6744890      118.80288470    0.00000000
                                                     2        3.0341152       43.43548760    0.00000000
                                      P - F
                                                     0       54.2563340        5.00000000    0.00000000
                                                     1       26.0095593       25.05042520    0.00000000
                                                     2       28.2012995       92.61574630    0.00000000
                                                     2        9.4341061       95.82490160    0.00000000
                                                     2        2.5321764       26.26849830    0.00000000
                                      D - F
                                                     0       87.6328721        3.00000000    0.00000000
                                                     1       61.7373377       22.55335570    0.00000000
                                                     2       32.4385104      178.12419880    0.00000000
                                                     2        8.7537199       76.99241620    0.00000000
                                                     2        1.6633189        9.48182700    0.00000000
    4          6
                                   No pseudopotential on this center.
    5          1
                                   No pseudopotential on this center.
    6          1
                                   No pseudopotential on this center.
    7          1
                                   No pseudopotential on this center.
    8          6
                                   No pseudopotential on this center.
    9          7
                                   No pseudopotential on this center.
   10          6
                                   No pseudopotential on this center.
   11          1
                                   No pseudopotential on this center.
   12          1
                                   No pseudopotential on this center.
   13          1
                                   No pseudopotential on this center.
   14          6
                                   No pseudopotential on this center.
   15          7
                                   No pseudopotential on this center.
   16          6
                                   No pseudopotential on this center.
   17          1
                                   No pseudopotential on this center.
   18          1
                                   No pseudopotential on this center.
   19          1
                                   No pseudopotential on this center.
   20          6
                                   No pseudopotential on this center.
   21          7
                                   No pseudopotential on this center.
   22          6
                                   No pseudopotential on this center.
   23          1
                                   No pseudopotential on this center.
   24          1
                                   No pseudopotential on this center.
   25          1
                                   No pseudopotential on this center.
   26          6
                                   No pseudopotential on this center.
   27          7
                                   No pseudopotential on this center.
 ======================================================================================================
 There are   624 symmetry adapted cartesian basis functions of A   symmetry.
 There are   552 symmetry adapted basis functions of A   symmetry.
   552 basis functions,   864 primitive gaussians,   624 cartesian basis functions
    53 alpha electrons       53 beta electrons
       nuclear repulsion energy       727.0442440329 Hartrees.
 NAtoms=   27 NActive=   27 NUniq=   27 SFac= 1.00D+00 NAtFMM=   60 NAOKFM=F Big=F
 Integral buffers will be    131072 words long.
 Raffenetti 1 integral format.
 Two-electron integral symmetry is turned on.
 Nuclear repulsion after empirical dispersion term =      727.0121661597 Hartrees.
 ------------------------------------------------------------------------------
 Polarizable Continuum Model (PCM)
 =================================
 Model                : PCM.
 Atomic radii         : UFF (Universal Force Field).
 Polarization charges : Total charges.
 Charge compensation  : None.
 Solution method      : On-the-fly selection.
 Cavity type          : Scaled VdW (van der Waals Surface) (Alpha=1.100).
 Cavity algorithm     : GePol (No added spheres)
                        Default sphere list used, NSphG=   27.
                        Lebedev-Laikov grids with approx.  5.0 points / Ang**2.
                        Smoothing algorithm: York/Karplus (Gamma=1.0000).
                        Polarization charges: spherical gaussians, with
                                              point-specific exponents (IZeta= 3).
                        Self-potential: point-specific (ISelfS= 7).
                        Self-field    : sphere-specific E.n sum rule (ISelfD= 2).
 Solvent              : Acetonitrile, Eps=  35.688000 Eps(inf)=   1.806874
 ------------------------------------------------------------------------------
 One-electron integrals computed using PRISM.
   1 Symmetry operations used in ECPInt.
 ECPInt:  NShTT=   20910 NPrTT=   76755 LenC2=   17035 LenP2D=   41582.
 LDataN:  DoStor=T MaxTD1= 7 Len=  274
 NBasis=   552 RedAO= T EigKep=  5.47D-04  NBF=   552
 NBsUse=   552 1.00D-06 EigRej= -1.00D+00 NBFU=   552
 Defaulting to unpruned grid for atomic number  82.
 Initial guess from the checkpoint file:  "02-PbBr2_acn.chk"
 B after Tr=     0.000000    0.000000   -0.000000
         Rot=    1.000000    0.000000   -0.000000    0.000000 Ang=   0.00 deg.
 Requested convergence on RMS density matrix=1.00D-08 within 128 cycles.
 Requested convergence on MAX density matrix=1.00D-06.
 Requested convergence on             energy=1.00D-06.
 No special actions if energy rises.
 Defaulting to unpruned grid for atomic number  82.
 Defaulting to unpruned grid for atomic number  82.
 Defaulting to unpruned grid for atomic number  82.
 Defaulting to unpruned grid for atomic number  82.
 Defaulting to unpruned grid for atomic number  82.
 Defaulting to unpruned grid for atomic number  82.
 Defaulting to unpruned grid for atomic number  82.
 Inv3:  Mode=1 IEnd=    25509168.
 Iteration    1 A*A^-1 deviation from unit magnitude is 3.55D-15 for    902.
 Iteration    1 A*A^-1 deviation from orthogonality  is 2.28D-15 for   1824   1125.
 Iteration    1 A^-1*A deviation from unit magnitude is 3.22D-15 for     44.
 Iteration    1 A^-1*A deviation from orthogonality  is 1.04D-11 for   1639   1638.
 Error on total polarization charges =  0.01597
 SCF Done:  E(RCAM-B3LYP) =  -560.894758719     A.U. after   11 cycles
            NFock= 11  Conv=0.70D-08     -V/T= 2.0452
 DoSCS=F DFT=T ScalE2(SS,OS)=  1.000000  1.000000
 ExpMin= 5.98D-02 ExpMax= 1.14D+04 ExpMxC= 3.89D+02 IAcc=3 IRadAn=         5 AccDes= 0.00D+00
 HarFok:  IExCor=  205 AccDes= 0.00D+00 IRadAn=         5 IDoV=-2 UseB2=F ITyADJ=14
 ICtDFT= 12500011 ScaDFX=  1.000000  1.000000  1.000000  1.000000
 Defaulting to unpruned grid for atomic number  82.
 Range of M.O.s used for correlation:    13   552
 NBasis=   552 NAE=    53 NBE=    53 NFC=    12 NFV=     0
 NROrb=    540 NOA=    41 NOB=    41 NVA=   499 NVB=   499

 **** Warning!!: The largest alpha MO coefficient is  0.12890157D+02

 NEqPCM:  Using non-equilibrium solvation (IEInf=1, Eps=  35.6880, EpsInf=   1.8069)
 Inv3:  Mode=1 IEnd=    25509168.
 Iteration    1 A*A^-1 deviation from unit magnitude is 3.55D-15 for   1270.
 Iteration    1 A*A^-1 deviation from orthogonality  is 2.18D-15 for   1638   1508.
 Iteration    1 A^-1*A deviation from unit magnitude is 3.77D-15 for   1264.
 Iteration    1 A^-1*A deviation from orthogonality  is 2.21D-15 for   2036    264.
 Orbital symmetries:
       Occupied  (A) (A) (A) (A) (A) (A) (A) (A) (A) (A) (A) (A)
                 (A) (A) (A) (A) (A) (A) (A) (A) (A) (A) (A) (A)
                 (A) (A) (A) (A) (A) (A) (A) (A) (A) (A) (A) (A)
                 (A) (A) (A) (A) (A) (A) (A) (A) (A) (A) (A) (A)
                 (A) (A) (A) (A) (A)
       Virtual   (A) (A) (A) (A) (A) (A) (A) (A) (A) (A) (A) (A)
                 (A) (A) (A) (A) (A) (A) (A) (A) (A) (A) (A) (A)
                 (A) (A) (A) (A) (A) (A) (A) (A) (A) (A) (A) (A)
                 (A) (A) (A) (A) (A) (A) (A) (A) (A) (A) (A) (A)
                 (A) (A) (A) (A) (A) (A) (A) (A) (A) (A) (A) (A)
                 (A) (A) (A) (A) (A) (A) (A) (A) (A) (A) (A) (A)
                 (A) (A) (A) (A) (A) (A) (A) (A) (A) (A) (A) (A)
                 (A) (A) (A) (A) (A) (A) (A) (A) (A) (A) (A) (A)
                 (A) (A) (A) (A) (A) (A) (A) (A) (A) (A) (A) (A)
                 (A) (A) (A) (A) (A) (A) (A) (A) (A) (A) (A) (A)
                 (A) (A) (A) (A) (A) (A) (A) (A) (A) (A) (A) (A)
                 (A) (A) (A) (A) (A) (A) (A) (A) (A) (A) (A) (A)
                 (A) (A) (A) (A) (A) (A) (A) (A) (A) (A) (A) (A)
                 (A) (A) (A) (A) (A) (A) (A) (A) (A) (A) (A) (A)
                 (A) (A) (A) (A) (A) (A) (A) (A) (A) (A) (A) (A)
                 (A) (A) (A) (A) (A) (A) (A) (A) (A) (A) (A) (A)
                 (A) (A) (A) (A) (A) (A) (A) (A) (A) (A) (A) (A)
                 (A) (A) (A) (A) (A) (A) (A) (A) (A) (A) (A) (A)
                 (A) (A) (A) (A) (A) (A) (A) (A) (A) (A) (A) (A)
                 (A) (A) (A) (A) (A) (A) (A) (A) (A) (A) (A) (A)
                 (A) (A) (A) (A) (A) (A) (A) (A) (A) (A) (A) (A)
                 (A) (A) (A) (A) (A) (A) (A) (A) (A) (A) (A) (A)
                 (A) (A) (A) (A) (A) (A) (A) (A) (A) (A) (A) (A)
                 (A) (A) (A) (A) (A) (A) (A) (A) (A) (A) (A) (A)
                 (A) (A) (A) (A) (A) (A) (A) (A) (A) (A) (A) (A)
                 (A) (A) (A) (A) (A) (A) (A) (A) (A) (A) (A) (A)
                 (A) (A) (A) (A) (A) (A) (A) (A) (A) (A) (A) (A)
                 (A) (A) (A) (A) (A) (A) (A) (A) (A) (A) (A) (A)
                 (A) (A) (A) (A) (A) (A) (A) (A) (A) (A) (A) (A)
                 (A) (A) (A) (A) (A) (A) (A) (A) (A) (A) (A) (A)
                 (A) (A) (A) (A) (A) (A) (A) (A) (A) (A) (A) (A)
                 (A) (A) (A) (A) (A) (A) (A) (A) (A) (A) (A) (A)
                 (A) (A) (A) (A) (A) (A) (A) (A) (A) (A) (A) (A)
                 (A) (A) (A) (A) (A) (A) (A) (A) (A) (A) (A) (A)
                 (A) (A) (A) (A) (A) (A) (A) (A) (A) (A) (A) (A)
                 (A) (A) (A) (A) (A) (A) (A) (A) (A) (A) (A) (A)
                 (A) (A) (A) (A) (A) (A) (A) (A) (A) (A) (A) (A)
                 (A) (A) (A) (A) (A) (A) (A) (A) (A) (A) (A) (A)
                 (A) (A) (A) (A) (A) (A) (A) (A) (A) (A) (A) (A)
                 (A) (A) (A) (A) (A) (A) (A) (A) (A) (A) (A) (A)
                 (A) (A) (A) (A) (A) (A) (A) (A) (A) (A) (A) (A)
                 (A) (A) (A) (A) (A) (A) (A)
    40 initial guesses have been made.
 Convergence on wavefunction:    0.001000000000000
 Iteration     1 Dimension    40 NMult     0 NNew     40
 CISAX will form    40 AO SS matrices at one time.
 Defaulting to unpruned grid for atomic number  82.
 Defaulting to unpruned grid for atomic number  82.
 Defaulting to unpruned grid for atomic number  82.
 Defaulting to unpruned grid for atomic number  82.
 Defaulting to unpruned grid for atomic number  82.
 Defaulting to unpruned grid for atomic number  82.
 Defaulting to unpruned grid for atomic number  82.
 New state      1 was old state      3
 New state      2 was old state      1
 New state      3 was old state      4
 New state      4 was old state      6
 New state      6 was old state      8
 New state      7 was old state      2
 New state      8 was old state      7
 Iteration     2 Dimension    60 NMult    40 NNew     20
 Iteration     3 Dimension    80 NMult    60 NNew     20
 Iteration     4 Dimension   100 NMult    80 NNew     20
 Iteration     5 Dimension   120 NMult   100 NNew     20
 Iteration     6 Dimension   128 NMult   120 NNew      8
 ***********************************************************************
 Excited states from <AA,BB:AA,BB> singles matrix:
 ***********************************************************************
 
 Ground to excited state transition densities written to RWF  633
 Ground to excited state transition electric dipole moments (Au):
       state          X           Y           Z        Dip. S.      Osc.
         1        -0.3973      0.3469      0.0224      0.2786      0.0387
         2         0.5061      0.1967     -0.7398      0.8422      0.1182
         3         0.2242      0.0937     -0.2007      0.0994      0.0142
         4        -0.2844     -0.0826      0.2188      0.1356      0.0194
         5         0.0561     -0.0974      0.2635      0.0821      0.0118
         6         1.0418      0.1159      0.2540      1.1634      0.1687
         7         0.4904     -1.3532     -0.0001      2.0718      0.3065
         8        -0.1426      0.2952     -0.0038      0.1075      0.0162
         9        -0.1118      0.2180      0.0374      0.0614      0.0093
        10        -0.1003      0.0361     -0.0231      0.0119      0.0018
 Ground to excited state transition velocity dipole moments (Au):
       state          X           Y           Z        Dip. S.      Osc.
         1         0.0553     -0.0332     -0.0024      0.0042      0.0133
         2        -0.0914     -0.0346      0.1649      0.0368      0.1163
         3        -0.0153     -0.0050      0.0040      0.0003      0.0009
         4         0.0700      0.0214     -0.0197      0.0057      0.0179
         5         0.0170      0.0411     -0.0303      0.0029      0.0089
         6        -0.2367     -0.0432     -0.0575      0.0612      0.1876
         7        -0.0800      0.2567      0.0026      0.0723      0.2171
         8         0.0256     -0.0519      0.0036      0.0034      0.0099
         9         0.0198     -0.0447      0.0016      0.0024      0.0070
        10         0.0204     -0.0058      0.0041      0.0005      0.0014
 Ground to excited state transition magnetic dipole moments (Au):
       state          X           Y           Z
         1        -0.6662     -0.5628     -0.1173
         2        -0.2697      0.4849      0.0239
         3        -0.2440      0.3747      0.0553
         4         0.0041     -0.1038      0.2690
         5        -0.2655      0.5037     -0.2450
         6        -0.1666      0.6306     -0.0598
         7         0.8782      0.1351     -0.0750
         8        -0.2068     -0.1341     -0.1471
         9        -0.0846     -0.0692     -0.1718
        10        -0.1289      0.0100     -0.3086
 Ground to excited state transition velocity quadrupole moments (Au):
       state          XX          YY          ZZ          XY          XZ          YZ
         1         0.0926     -0.0975      0.0112     -0.1316      0.0717     -0.1515
         2        -0.0706     -0.3297      0.1576      0.1559     -0.0762     -0.0835
         3         0.1475      0.1686     -0.1026     -0.3087      0.1073      0.0449
         4         0.2277     -0.4374      0.1051     -0.0690      0.1156     -0.0158
         5        -0.1563     -0.1180      0.1177      0.1453      0.1525      0.1638
         6         0.4139     -0.3245     -0.0879      0.2502     -0.0570      0.0317
         7        -0.1485      0.1007      0.0046      0.0712     -0.1055      0.2151
         8        -0.1373      0.0652     -0.0138      0.0319      0.0299     -0.0416
         9         0.0331     -0.0878      0.0300      0.0234      0.0047     -0.0282
        10        -0.1769      0.1320      0.0239      0.0059     -0.0379     -0.0282
 <0|del|b> * <b|rxdel|0> + <0|del|b> * <b|delr+rdel|0>
 Rotatory Strengths (R) in cgs (10**-40 erg-esu-cm/Gauss)
       state          XX          YY          ZZ    R(velocity)    E-M Angle
         1        36.7275    -76.6970    -20.5865    -20.1853      108.33
         2        17.2024     17.6602      4.8714     13.2447       83.62
         3        -3.8454      7.4112      3.3526      2.3062       73.70
         4       -14.2546    -12.3357      2.7108     -7.9598      109.35
         5        28.6031     16.5496     32.2254     25.7927       44.97
         6       -66.0469     80.8811     36.0469     16.9603       84.46
         7        98.3611   -139.9933    -72.4251    -38.0191       98.59
         8        12.6788    -10.9695      1.8270      1.1788       86.11
         9         4.7572     -3.9663      2.7426      1.1778       83.44
        10        -2.3701     -6.9756     -2.9289     -4.0916      123.30
 1/2[<0|r|b>*<b|rxdel|0> + (<0|rxdel|b>*<b|r|0>)*]
 Rotatory Strengths (R) in cgs (10**-40 erg-esu-cm/Gauss)
       state          XX          YY          ZZ     R(length)
         1      -187.1526    138.0377      1.8575    -15.7525
         2        96.5329    -67.4559     12.4815     13.8528
         3        38.7010    -24.8263      7.8496      7.2414
         4         0.8154     -6.0615    -41.6206    -15.6223
         5        10.5400     34.6922     45.6580     30.2967
         6       122.7571    -51.6857     10.7324     27.2679
         7      -304.5944    129.3139     -0.0054    -58.4286
         8       -20.8507     27.9902     -0.3971      2.2475
         9        -6.6889     10.6756      4.5386      2.8417
        10        -9.1428     -0.2563     -5.0376     -4.8122
  1/2[<0|del|b>*<b|r|0> + (<0|r|b>*<b|del|0>)*] (Au)
       state          X           Y           Z        Dip. S.   Osc.(frdel)
         1        -0.0220     -0.0115     -0.0001      0.0335      0.0223
         2        -0.0463     -0.0068     -0.1220      0.1751      0.1167
         3        -0.0034     -0.0005     -0.0008      0.0047      0.0031
         4        -0.0199     -0.0018     -0.0043      0.0260      0.0173
         5         0.0010     -0.0040     -0.0080      0.0110      0.0074
         6        -0.2466     -0.0050     -0.0146      0.2662      0.1775
         7        -0.0392     -0.3473     -0.0000      0.3866      0.2577
         8        -0.0037     -0.0153     -0.0000      0.0190      0.0127
         9        -0.0022     -0.0097      0.0001      0.0119      0.0079
        10        -0.0020     -0.0002     -0.0001      0.0023      0.0016

 Excitation energies and oscillator strengths:
 
 Excited State   1:      Singlet-A      5.6732 eV  218.54 nm  f=0.0387  <S**2>=0.000
      52 -> 54         0.44744
      52 -> 55        -0.19279
      52 -> 56        -0.16398
      53 -> 54        -0.19866
      53 -> 55        -0.40702
 This state for optimization and/or second-order correction.
 Total Energy, E(TD-HF/TD-DFT) =  -560.686271823    
 Copying the excited state density for this state as the 1-particle RhoCI density.
 
 Excited State   2:      Singlet-A      5.7306 eV  216.35 nm  f=0.1182  <S**2>=0.000
      49 -> 54        -0.13679
      51 -> 55        -0.10140
      52 -> 55        -0.25657
      53 -> 54         0.55591
      53 -> 55        -0.20974
      53 -> 56        -0.10864
 
 Excited State   3:      Singlet-A      5.8178 eV  213.11 nm  f=0.0142  <S**2>=0.000
      49 -> 54         0.12941
      50 -> 55        -0.12808
      51 -> 54         0.11719
      51 -> 55        -0.22903
      52 -> 54         0.22429
      52 -> 55         0.50284
      53 -> 54         0.22901
 
 Excited State   4:      Singlet-A      5.8354 eV  212.47 nm  f=0.0194  <S**2>=0.000
      50 -> 55        -0.27446
      51 -> 54         0.37791
      51 -> 55        -0.37756
      51 -> 56        -0.13118
      52 -> 54        -0.13993
      52 -> 55        -0.19884
      53 -> 54        -0.16342
 
 Excited State   5:      Singlet-A      5.8678 eV  211.30 nm  f=0.0118  <S**2>=0.000
      50 -> 54         0.37130
      50 -> 56        -0.10843
      51 -> 54        -0.29471
      51 -> 55        -0.20262
      51 -> 56         0.11529
      52 -> 55        -0.12297
      53 -> 56         0.39914
 
 Excited State   6:      Singlet-A      5.9191 eV  209.47 nm  f=0.1687  <S**2>=0.000
      50 -> 54        -0.27689
      50 -> 56         0.10540
      51 -> 54         0.18079
      51 -> 55         0.22900
      52 -> 54         0.10288
      53 -> 54         0.19139
      53 -> 55         0.14152
      53 -> 56         0.47807
 
 Excited State   7:      Singlet-A      6.0392 eV  205.30 nm  f=0.3065  <S**2>=0.000
      48 -> 54        -0.12924
      49 -> 55         0.14225
      50 -> 54         0.11967
      51 -> 54         0.14620
      51 -> 56         0.15331
      52 -> 54         0.32796
      52 -> 55        -0.13861
      53 -> 55         0.43102
      53 -> 56        -0.24224
 
 Excited State   8:      Singlet-A      6.1430 eV  201.83 nm  f=0.0162  <S**2>=0.000
      50 -> 54         0.43994
      50 -> 55         0.12880
      50 -> 56        -0.11828
      51 -> 54         0.35865
      51 -> 55         0.31080
      51 -> 56        -0.13442
 
 Excited State   9:      Singlet-A      6.1915 eV  200.25 nm  f=0.0093  <S**2>=0.000
      52 -> 54         0.20713
      52 -> 56         0.64407
 
 Excited State  10:      Singlet-A      6.2173 eV  199.42 nm  f=0.0018  <S**2>=0.000
      50 -> 55         0.60535
      51 -> 54         0.13738
      51 -> 55        -0.29053
 SavETr:  write IOETrn=   770 NScale= 10 NData=  16 NLR=1 NState=   10 LETran=     190.

 **********************************************************************

            Population analysis using the SCF Density.

 **********************************************************************

 Orbital symmetries:
       Occupied  (A) (A) (A) (A) (A) (A) (A) (A) (A) (A) (A) (A)
                 (A) (A) (A) (A) (A) (A) (A) (A) (A) (A) (A) (A)
                 (A) (A) (A) (A) (A) (A) (A) (A) (A) (A) (A) (A)
                 (A) (A) (A) (A) (A) (A) (A) (A) (A) (A) (A) (A)
                 (A) (A) (A) (A) (A)
       Virtual   (A) (A) (A) (A) (A) (A) (A) (A) (A) (A) (A) (A)
                 (A) (A) (A) (A) (A) (A) (A) (A) (A) (A) (A) (A)
                 (A) (A) (A) (A) (A) (A) (A) (A) (A) (A) (A) (A)
                 (A) (A) (A) (A) (A) (A) (A) (A) (A) (A) (A) (A)
                 (A) (A) (A) (A) (A) (A) (A) (A) (A) (A) (A) (A)
                 (A) (A) (A) (A) (A) (A) (A) (A) (A) (A) (A) (A)
                 (A) (A) (A) (A) (A) (A) (A) (A) (A) (A) (A) (A)
                 (A) (A) (A) (A) (A) (A) (A) (A) (A) (A) (A) (A)
                 (A) (A) (A) (A) (A) (A) (A) (A) (A) (A) (A) (A)
                 (A) (A) (A) (A) (A) (A) (A) (A) (A) (A) (A) (A)
                 (A) (A) (A) (A) (A) (A) (A) (A) (A) (A) (A) (A)
                 (A) (A) (A) (A) (A) (A) (A) (A) (A) (A) (A) (A)
                 (A) (A) (A) (A) (A) (A) (A) (A) (A) (A) (A) (A)
                 (A) (A) (A) (A) (A) (A) (A) (A) (A) (A) (A) (A)
                 (A) (A) (A) (A) (A) (A) (A) (A) (A) (A) (A) (A)
                 (A) (A) (A) (A) (A) (A) (A) (A) (A) (A) (A) (A)
                 (A) (A) (A) (A) (A) (A) (A) (A) (A) (A) (A) (A)
                 (A) (A) (A) (A) (A) (A) (A) (A) (A) (A) (A) (A)
                 (A) (A) (A) (A) (A) (A) (A) (A) (A) (A) (A) (A)
                 (A) (A) (A) (A) (A) (A) (A) (A) (A) (A) (A) (A)
                 (A) (A) (A) (A) (A) (A) (A) (A) (A) (A) (A) (A)
                 (A) (A) (A) (A) (A) (A) (A) (A) (A) (A) (A) (A)
                 (A) (A) (A) (A) (A) (A) (A) (A) (A) (A) (A) (A)
                 (A) (A) (A) (A) (A) (A) (A) (A) (A) (A) (A) (A)
                 (A) (A) (A) (A) (A) (A) (A) (A) (A) (A) (A) (A)
                 (A) (A) (A) (A) (A) (A) (A) (A) (A) (A) (A) (A)
                 (A) (A) (A) (A) (A) (A) (A) (A) (A) (A) (A) (A)
                 (A) (A) (A) (A) (A) (A) (A) (A) (A) (A) (A) (A)
                 (A) (A) (A) (A) (A) (A) (A) (A) (A) (A) (A) (A)
                 (A) (A) (A) (A) (A) (A) (A) (A) (A) (A) (A) (A)
                 (A) (A) (A) (A) (A) (A) (A) (A) (A) (A) (A) (A)
                 (A) (A) (A) (A) (A) (A) (A) (A) (A) (A) (A) (A)
                 (A) (A) (A) (A) (A) (A) (A) (A) (A) (A) (A) (A)
                 (A) (A) (A) (A) (A) (A) (A) (A) (A) (A) (A) (A)
                 (A) (A) (A) (A) (A) (A) (A) (A) (A) (A) (A) (A)
                 (A) (A) (A) (A) (A) (A) (A) (A) (A) (A) (A) (A)
                 (A) (A) (A) (A) (A) (A) (A) (A) (A) (A) (A) (A)
                 (A) (A) (A) (A) (A) (A) (A) (A) (A) (A) (A) (A)
                 (A) (A) (A) (A) (A) (A) (A) (A) (A) (A) (A) (A)
                 (A) (A) (A) (A) (A) (A) (A) (A) (A) (A) (A) (A)
                 (A) (A) (A) (A) (A) (A) (A) (A) (A) (A) (A) (A)
                 (A) (A) (A) (A) (A) (A) (A)
 The electronic state is 1-A.
 Alpha  occ. eigenvalues --  -14.42887 -14.41522 -14.41158 -14.41096 -10.34036
 Alpha  occ. eigenvalues --  -10.32805 -10.32297 -10.32218 -10.30238 -10.29446
 Alpha  occ. eigenvalues --  -10.29361 -10.29336  -1.02246  -1.00963  -1.00536
 Alpha  occ. eigenvalues --   -1.00463  -0.86591  -0.85760  -0.85577  -0.85537
 Alpha  occ. eigenvalues --   -0.77858  -0.76940  -0.61037  -0.58982  -0.58642
 Alpha  occ. eigenvalues --   -0.58515  -0.57507  -0.53943  -0.53708  -0.53152
 Alpha  occ. eigenvalues --   -0.52895  -0.52848  -0.52739  -0.52552  -0.52533
 Alpha  occ. eigenvalues --   -0.49865  -0.47479  -0.46581  -0.45180  -0.43106
 Alpha  occ. eigenvalues --   -0.43032  -0.41716  -0.41584  -0.41347  -0.40825
 Alpha  occ. eigenvalues --   -0.40706  -0.40171  -0.34096  -0.32608  -0.31724
 Alpha  occ. eigenvalues --   -0.31313  -0.30741  -0.30038
 Alpha virt. eigenvalues --    0.00657   0.00912   0.01726   0.04531   0.04810
 Alpha virt. eigenvalues --    0.05486   0.05817   0.05883   0.06423   0.07062
 Alpha virt. eigenvalues --    0.07552   0.07889   0.08651   0.09377   0.10207
 Alpha virt. eigenvalues --    0.13403   0.13969   0.15443   0.16035   0.16715
 Alpha virt. eigenvalues --    0.17766   0.18117   0.18621   0.19903   0.20156
 Alpha virt. eigenvalues --    0.20685   0.20880   0.21309   0.21889   0.22229
 Alpha virt. eigenvalues --    0.22739   0.26350   0.27184   0.28188   0.29304
 Alpha virt. eigenvalues --    0.29928   0.30483   0.30697   0.31449   0.31967
 Alpha virt. eigenvalues --    0.32339   0.34682   0.36320   0.36917   0.37640
 Alpha virt. eigenvalues --    0.38372   0.39245   0.39627   0.41313   0.42129
 Alpha virt. eigenvalues --    0.43733   0.44927   0.46240   0.46989   0.47426
 Alpha virt. eigenvalues --    0.47849   0.48621   0.48732   0.48959   0.49244
 Alpha virt. eigenvalues --    0.50089   0.50207   0.50344   0.51408   0.51716
 Alpha virt. eigenvalues --    0.52031   0.52987   0.54235   0.55201   0.55491
 Alpha virt. eigenvalues --    0.55886   0.56971   0.57334   0.57756   0.58712
 Alpha virt. eigenvalues --    0.59715   0.60734   0.61798   0.62806   0.63860
 Alpha virt. eigenvalues --    0.64229   0.64655   0.66045   0.66595   0.67029
 Alpha virt. eigenvalues --    0.68100   0.68182   0.69352   0.69851   0.70193
 Alpha virt. eigenvalues --    0.71242   0.72058   0.72660   0.73180   0.73406
 Alpha virt. eigenvalues --    0.73924   0.74485   0.75683   0.76175   0.77370
 Alpha virt. eigenvalues --    0.77976   0.78555   0.80550   0.81137   0.81912
 Alpha virt. eigenvalues --    0.83320   0.86328   0.86504   0.89019   0.89424
 Alpha virt. eigenvalues --    0.90010   0.90683   0.90796   0.91664   0.92340
 Alpha virt. eigenvalues --    0.93943   0.99949   1.01310   1.02479   1.02665
 Alpha virt. eigenvalues --    1.02871   1.03101   1.03499   1.04136   1.04472
 Alpha virt. eigenvalues --    1.04868   1.05872   1.05976   1.06213   1.06294
 Alpha virt. eigenvalues --    1.06991   1.07802   1.08182   1.09114   1.09851
 Alpha virt. eigenvalues --    1.10164   1.18521   1.21126   1.21352   1.21665
 Alpha virt. eigenvalues --    1.21843   1.22321   1.22964   1.23286   1.23557
 Alpha virt. eigenvalues --    1.24039   1.24668   1.25228   1.25799   1.25947
 Alpha virt. eigenvalues --    1.26550   1.28364   1.32269   1.32805   1.32980
 Alpha virt. eigenvalues --    1.33175   1.33445   1.34504   1.35112   1.36089
 Alpha virt. eigenvalues --    1.37462   1.37824   1.38008   1.38649   1.38873
 Alpha virt. eigenvalues --    1.39087   1.42687   1.43051   1.44515   1.45191
 Alpha virt. eigenvalues --    1.45724   1.46288   1.46934   1.47016   1.47778
 Alpha virt. eigenvalues --    1.48586   1.50341   1.51210   1.52076   1.52204
 Alpha virt. eigenvalues --    1.76806   1.77513   1.78457   1.78773   1.79445
 Alpha virt. eigenvalues --    1.80214   1.80358   1.82260   1.88769   1.91461
 Alpha virt. eigenvalues --    1.92911   1.93236   2.02261   2.05878   2.06438
 Alpha virt. eigenvalues --    2.10053   2.11132   2.12888   2.13852   2.15114
 Alpha virt. eigenvalues --    2.15632   2.19179   2.19769   2.20804   2.21566
 Alpha virt. eigenvalues --    2.22761   2.25122   2.25689   2.30770   2.31430
 Alpha virt. eigenvalues --    2.31814   2.32403   2.32439   2.32778   2.34523
 Alpha virt. eigenvalues --    2.35849   2.45074   2.45698   2.47395   2.49708
 Alpha virt. eigenvalues --    2.61296   2.61540   2.61977   2.62866   2.63030
 Alpha virt. eigenvalues --    2.63317   2.63570   2.64915   2.66479   2.66650
 Alpha virt. eigenvalues --    2.66814   2.67183   2.68658   2.69742   2.69870
 Alpha virt. eigenvalues --    2.70710   2.71184   2.71354   2.72620   2.72705
 Alpha virt. eigenvalues --    2.77535   2.77784   2.77898   2.78883   2.79315
 Alpha virt. eigenvalues --    2.79859   2.80612   2.81218   2.85990   2.86336
 Alpha virt. eigenvalues --    2.86688   2.86742   2.88868   2.89460   2.90024
 Alpha virt. eigenvalues --    2.90066   2.90320   2.90536   2.91051   2.91178
 Alpha virt. eigenvalues --    2.91591   2.92366   2.92669   2.93542   2.93580
 Alpha virt. eigenvalues --    2.94566   2.94628   2.94918   2.95204   2.96234
 Alpha virt. eigenvalues --    2.97133   3.00433   3.02231   3.02725   3.02932
 Alpha virt. eigenvalues --    3.03859   3.03880   3.04613   3.06957   3.08830
 Alpha virt. eigenvalues --    3.10370   3.10391   3.10667   3.10963   3.11328
 Alpha virt. eigenvalues --    3.11505   3.12757   3.13715   3.19403   3.19951
 Alpha virt. eigenvalues --    3.20358   3.20978   3.21042   3.21573   3.21974
 Alpha virt. eigenvalues --    3.22730   3.27991   3.28495   3.28524   3.28908
 Alpha virt. eigenvalues --    3.33500   3.33873   3.34280   3.34400   3.36495
 Alpha virt. eigenvalues --    3.36547   3.36677   3.37089   3.37227   3.37470
 Alpha virt. eigenvalues --    3.38241   3.38472   3.43322   3.43659   3.44024
 Alpha virt. eigenvalues --    3.44600   3.45921   3.46104   3.46114   3.46415
 Alpha virt. eigenvalues --    3.46436   3.46509   3.46901   3.47148   3.67794
 Alpha virt. eigenvalues --    3.68077   3.68170   3.68271   3.68706   3.68873
 Alpha virt. eigenvalues --    3.69027   3.69686   3.71442   3.71628   3.73092
 Alpha virt. eigenvalues --    3.73132   3.82535   3.82663   3.82738   3.83116
 Alpha virt. eigenvalues --    3.83235   3.84165   3.84882   3.84924   3.90838
 Alpha virt. eigenvalues --    3.91864   3.92757   3.92912   3.93660   3.94540
 Alpha virt. eigenvalues --    3.94691   3.94920   3.95175   3.95422   3.95628
 Alpha virt. eigenvalues --    3.96131   3.96542   3.96649   3.97009   3.97649
 Alpha virt. eigenvalues --    4.00524   4.00838   4.01233   4.01367   4.01500
 Alpha virt. eigenvalues --    4.01660   4.01906   4.02212   4.08092   4.08598
 Alpha virt. eigenvalues --    4.08742   4.09145   4.09378   4.09761   4.09818
 Alpha virt. eigenvalues --    4.09995   4.10238   4.10608   4.11087   4.11612
 Alpha virt. eigenvalues --    4.28382   4.28505   4.29082   4.29274   4.39481
 Alpha virt. eigenvalues --    4.39645   4.39756   4.40053   4.40115   4.40264
 Alpha virt. eigenvalues --    4.41647   4.41664   4.44805   4.44983   4.45208
 Alpha virt. eigenvalues --    4.45240   4.57696   4.58265   4.58636   4.58870
 Alpha virt. eigenvalues --    4.59232   4.59654   4.60053   4.60296   4.63837
 Alpha virt. eigenvalues --    4.64792   4.64888   4.64990   4.65415   4.65785
 Alpha virt. eigenvalues --    4.66026   4.66915   4.81355   4.82708   4.82913
 Alpha virt. eigenvalues --    4.83125   4.83253   4.83421   4.83624   4.83808
 Alpha virt. eigenvalues --    4.83891   4.84219   4.85085   4.87630   5.10925
 Alpha virt. eigenvalues --    5.11045   5.11196   5.12003   5.12588   5.13191
 Alpha virt. eigenvalues --    5.13294   5.14414   5.14516   5.15130   5.16091
 Alpha virt. eigenvalues --    5.16162   5.16394   5.17137   5.18125   5.19811
 Alpha virt. eigenvalues --    5.23274   5.23505   5.24280   5.24412   5.24505
 Alpha virt. eigenvalues --    5.24978   5.25501   5.25861   5.26186   5.26401
 Alpha virt. eigenvalues --    5.26517   5.27031   5.27485   5.27535   5.27880
 Alpha virt. eigenvalues --    5.28084   5.28705   5.29357   5.29816   5.31455
 Alpha virt. eigenvalues --    5.69423   5.70120   5.70481   5.72319   5.81740
 Alpha virt. eigenvalues --    5.81806   5.82219   5.82314   5.82535   5.82714
 Alpha virt. eigenvalues --    5.87075   5.88311   6.04896   6.05021   6.05747
 Alpha virt. eigenvalues --    6.07713   6.11972   6.12056   6.12240   6.12494
 Alpha virt. eigenvalues --    6.12970   6.13061   6.13396   6.14215   7.91222
 Alpha virt. eigenvalues --    8.03648   8.09766   8.45579   9.92601  13.42842
 Alpha virt. eigenvalues --   13.43835  13.45092  13.51579  14.90073  14.96731
 Alpha virt. eigenvalues --   15.02632  15.39592  18.54732  18.96634
          Condensed to atoms (all electrons):
               1          2          3          4          5          6
     1  Pb   2.946729   0.104371   0.088822  -0.007216   0.000124  -0.000058
     2  Br   0.104371   7.513199  -0.005571   0.000004   0.000001   0.000000
     3  Br   0.088822  -0.005571   7.499805  -0.017743   0.000126  -0.000024
     4  C   -0.007216   0.000004  -0.017743   4.849833   0.397446   0.399903
     5  H    0.000124   0.000001   0.000126   0.397446   0.530449  -0.021319
     6  H   -0.000058   0.000000  -0.000024   0.399903  -0.021319   0.517806
     7  H   -0.000993  -0.000004   0.035091   0.369536  -0.021091  -0.019400
     8  C   -0.054428   0.000107   0.009054   0.290845  -0.032125  -0.028926
     9  N    0.003231   0.000068  -0.005256  -0.053653  -0.000856  -0.000081
    10  C   -0.006332  -0.018380   0.000006   0.000001   0.000000  -0.000000
    11  H    0.000082   0.000105   0.000001   0.000000  -0.000000   0.000000
    12  H   -0.000037  -0.000037   0.000000  -0.000000   0.000000  -0.000000
    13  H   -0.000917   0.035165  -0.000004  -0.000000  -0.000000  -0.000000
    14  C   -0.051256   0.008887   0.000128   0.000016   0.000001  -0.000000
    15  N    0.001706  -0.005219   0.000070   0.000007  -0.000000  -0.000000
    16  C   -0.001224   0.000058  -0.014180  -0.000001  -0.000000   0.000000
    17  H    0.000068   0.000003   0.000088   0.000000  -0.000000   0.000000
    18  H    0.000137   0.000076   0.000109   0.000000   0.000000  -0.000000
    19  H   -0.000089  -0.000068   0.030447   0.000003  -0.000000  -0.000000
    20  C   -0.014667  -0.000102   0.006258   0.000004  -0.000000   0.000000
    21  N   -0.000099  -0.002528  -0.006349  -0.000001  -0.000000   0.000000
    22  C   -0.002869   0.000186   0.000219   0.000007  -0.000079  -0.000004
    23  H   -0.000056   0.000010  -0.000002   0.000012   0.000000   0.000000
    24  H   -0.000057  -0.000002   0.000002  -0.000132   0.000185  -0.000005
    25  H    0.000072   0.000040   0.000057  -0.000003   0.000005  -0.000000
    26  C   -0.040087   0.001473   0.002594   0.000473   0.000231   0.000045
    27  N   -0.052313  -0.006212  -0.005712   0.001752   0.000052   0.000064
               7          8          9         10         11         12
     1  Pb  -0.000993  -0.054428   0.003231  -0.006332   0.000082  -0.000037
     2  Br  -0.000004   0.000107   0.000068  -0.018380   0.000105  -0.000037
     3  Br   0.035091   0.009054  -0.005256   0.000006   0.000001   0.000000
     4  C    0.369536   0.290845  -0.053653   0.000001   0.000000  -0.000000
     5  H   -0.021091  -0.032125  -0.000856   0.000000  -0.000000   0.000000
     6  H   -0.019400  -0.028926  -0.000081  -0.000000   0.000000  -0.000000
     7  H    0.556772  -0.034765  -0.003152  -0.000000  -0.000000  -0.000000
     8  C   -0.034765   4.856452   0.993441   0.000016   0.000001  -0.000000
     9  N   -0.003152   0.993441   6.235450   0.000005  -0.000000  -0.000000
    10  C   -0.000000   0.000016   0.000005   4.848001   0.398045   0.399736
    11  H   -0.000000   0.000001  -0.000000   0.398045   0.530131  -0.021350
    12  H   -0.000000  -0.000000  -0.000000   0.399736  -0.021350   0.516241
    13  H   -0.000000  -0.000003  -0.000001   0.367490  -0.021195  -0.019218
    14  C   -0.000003   0.000419   0.000320   0.291565  -0.032615  -0.028461
    15  N   -0.000001   0.000396   0.000667  -0.050665  -0.000923  -0.000023
    16  C    0.000002   0.000005  -0.000000   0.000000  -0.000000   0.000000
    17  H   -0.000000   0.000000   0.000000   0.000000   0.000000   0.000000
    18  H   -0.000000  -0.000000  -0.000000   0.000000  -0.000000   0.000000
    19  H    0.000000  -0.000003   0.000000  -0.000000  -0.000000  -0.000000
    20  C   -0.000003   0.000004  -0.000007   0.000001  -0.000000   0.000000
    21  N    0.000003   0.000009   0.000019  -0.000000  -0.000000   0.000000
    22  C    0.000063   0.000079  -0.000028  -0.000063  -0.000151  -0.000004
    23  H    0.000002  -0.000006  -0.000001  -0.000143   0.000314  -0.000006
    24  H   -0.000026   0.000080   0.000013   0.000016  -0.000011   0.000000
    25  H    0.000007  -0.000002  -0.000001   0.000002   0.000013  -0.000000
    26  C    0.000469   0.000676  -0.000691   0.000498   0.000289   0.000050
    27  N   -0.000048   0.001320  -0.003711   0.001599   0.000036   0.000068
              13         14         15         16         17         18
     1  Pb  -0.000917  -0.051256   0.001706  -0.001224   0.000068   0.000137
     2  Br   0.035165   0.008887  -0.005219   0.000058   0.000003   0.000076
     3  Br  -0.000004   0.000128   0.000070  -0.014180   0.000088   0.000109
     4  C   -0.000000   0.000016   0.000007  -0.000001   0.000000   0.000000
     5  H   -0.000000   0.000001  -0.000000  -0.000000  -0.000000   0.000000
     6  H   -0.000000  -0.000000  -0.000000   0.000000   0.000000  -0.000000
     7  H   -0.000000  -0.000003  -0.000001   0.000002  -0.000000  -0.000000
     8  C   -0.000003   0.000419   0.000396   0.000005   0.000000  -0.000000
     9  N   -0.000001   0.000320   0.000667  -0.000000   0.000000  -0.000000
    10  C    0.367490   0.291565  -0.050665   0.000000   0.000000   0.000000
    11  H   -0.021195  -0.032615  -0.000923  -0.000000   0.000000  -0.000000
    12  H   -0.019218  -0.028461  -0.000023   0.000000   0.000000   0.000000
    13  H    0.558799  -0.034772  -0.003188  -0.000000  -0.000000  -0.000000
    14  C   -0.034772   4.850163   0.993819   0.000000  -0.000000   0.000000
    15  N   -0.003188   0.993819   6.235289   0.000000   0.000000   0.000000
    16  C   -0.000000   0.000000   0.000000   4.783802   0.397414   0.398716
    17  H   -0.000000  -0.000000   0.000000   0.397414   0.529394  -0.022255
    18  H   -0.000000   0.000000   0.000000   0.398716  -0.022255   0.528653
    19  H    0.000000  -0.000000  -0.000000   0.377400  -0.020314  -0.020278
    20  C    0.000000   0.000014   0.000010   0.312436  -0.030413  -0.031320
    21  N    0.000002   0.000027   0.000012  -0.031040  -0.000484  -0.000731
    22  C    0.000056   0.000133  -0.000011   0.000000  -0.000000  -0.000000
    23  H   -0.000038   0.000063   0.000010  -0.000000  -0.000000  -0.000000
    24  H    0.000004  -0.000006  -0.000001   0.000000  -0.000000   0.000000
    25  H    0.000001  -0.000002  -0.000001   0.000000   0.000000  -0.000000
    26  C    0.000481   0.000520  -0.000626   0.000000  -0.000000  -0.000000
    27  N   -0.000019   0.001229  -0.003630   0.000000  -0.000000   0.000000
              19         20         21         22         23         24
     1  Pb  -0.000089  -0.014667  -0.000099  -0.002869  -0.000056  -0.000057
     2  Br  -0.000068  -0.000102  -0.002528   0.000186   0.000010  -0.000002
     3  Br   0.030447   0.006258  -0.006349   0.000219  -0.000002   0.000002
     4  C    0.000003   0.000004  -0.000001   0.000007   0.000012  -0.000132
     5  H   -0.000000  -0.000000  -0.000000  -0.000079   0.000000   0.000185
     6  H   -0.000000   0.000000   0.000000  -0.000004   0.000000  -0.000005
     7  H    0.000000  -0.000003   0.000003   0.000063   0.000002  -0.000026
     8  C   -0.000003   0.000004   0.000009   0.000079  -0.000006   0.000080
     9  N    0.000000  -0.000007   0.000019  -0.000028  -0.000001   0.000013
    10  C   -0.000000   0.000001  -0.000000  -0.000063  -0.000143   0.000016
    11  H   -0.000000  -0.000000  -0.000000  -0.000151   0.000314  -0.000011
    12  H   -0.000000   0.000000   0.000000  -0.000004  -0.000006   0.000000
    13  H    0.000000   0.000000   0.000002   0.000056  -0.000038   0.000004
    14  C   -0.000000   0.000014   0.000027   0.000133   0.000063  -0.000006
    15  N   -0.000000   0.000010   0.000012  -0.000011   0.000010  -0.000001
    16  C    0.377400   0.312436  -0.031040   0.000000  -0.000000   0.000000
    17  H   -0.020314  -0.030413  -0.000484  -0.000000  -0.000000  -0.000000
    18  H   -0.020278  -0.031320  -0.000731  -0.000000  -0.000000   0.000000
    19  H    0.553394  -0.036584  -0.002888  -0.000000   0.000000  -0.000000
    20  C   -0.036584   4.806033   0.970077   0.000000  -0.000000  -0.000000
    21  N   -0.002888   0.970077   6.259957   0.000000  -0.000000  -0.000000
    22  C   -0.000000   0.000000   0.000000   4.739291   0.401663   0.402739
    23  H    0.000000  -0.000000  -0.000000   0.401663   0.528417  -0.021769
    24  H   -0.000000  -0.000000  -0.000000   0.402739  -0.021769   0.528182
    25  H   -0.000000  -0.000000   0.000000   0.399365  -0.020678  -0.020505
    26  C   -0.000000   0.000001   0.000009   0.325683  -0.034515  -0.035462
    27  N    0.000003   0.000024   0.000066  -0.034627  -0.002123  -0.002048
              25         26         27
     1  Pb   0.000072  -0.040087  -0.052313
     2  Br   0.000040   0.001473  -0.006212
     3  Br   0.000057   0.002594  -0.005712
     4  C   -0.000003   0.000473   0.001752
     5  H    0.000005   0.000231   0.000052
     6  H   -0.000000   0.000045   0.000064
     7  H    0.000007   0.000469  -0.000048
     8  C   -0.000002   0.000676   0.001320
     9  N   -0.000001  -0.000691  -0.003711
    10  C    0.000002   0.000498   0.001599
    11  H    0.000013   0.000289   0.000036
    12  H   -0.000000   0.000050   0.000068
    13  H    0.000001   0.000481  -0.000019
    14  C   -0.000002   0.000520   0.001229
    15  N   -0.000001  -0.000626  -0.003630
    16  C    0.000000   0.000000   0.000000
    17  H    0.000000  -0.000000  -0.000000
    18  H   -0.000000  -0.000000   0.000000
    19  H   -0.000000  -0.000000   0.000003
    20  C   -0.000000   0.000001   0.000024
    21  N    0.000000   0.000009   0.000066
    22  C    0.399365   0.325683  -0.034627
    23  H   -0.020678  -0.034515  -0.002123
    24  H   -0.020505  -0.035462  -0.002048
    25  H    0.524890  -0.032119  -0.001523
    26  C   -0.032119   4.878423   0.871006
    27  N   -0.001523   0.871006   6.411772
 Mulliken charges:
               1
     1  Pb   1.087357
     2  Br  -0.625630
     3  Br  -0.618035
     4  C   -0.231094
     5  H    0.146849
     6  H    0.151998
     7  H    0.117541
     8  C   -0.002647
     9  N   -0.165776
    10  C   -0.231397
    11  H    0.147228
    12  H    0.153041
    13  H    0.117357
    14  C   -0.000188
    15  N   -0.167698
    16  C   -0.223388
    17  H    0.146500
    18  H    0.146895
    19  H    0.118978
    20  C    0.018233
    21  N   -0.186063
    22  C   -0.231649
    23  H    0.148846
    24  H    0.148801
    25  H    0.150381
    26  C    0.060581
    27  N   -0.177023
 Sum of Mulliken charges =  -0.00000
 Mulliken charges with hydrogens summed into heavy atoms:
               1
     1  Pb   1.087357
     2  Br  -0.625630
     3  Br  -0.618035
     4  C    0.185295
     8  C   -0.002647
     9  N   -0.165776
    10  C    0.186230
    14  C   -0.000188
    15  N   -0.167698
    16  C    0.188985
    20  C    0.018233
    21  N   -0.186063
    22  C    0.216378
    26  C    0.060581
    27  N   -0.177023
 Electronic spatial extent (au):  <R**2>=           5325.5846
 Charge=             -0.0000 electrons
 Dipole moment (field-independent basis, Debye):
    X=              7.8546    Y=              7.9445    Z=              0.8096  Tot=             11.2012
 Quadrupole moment (field-independent basis, Debye-Ang):
   XX=            -47.7098   YY=           -102.0572   ZZ=           -135.8780
   XY=             17.7176   XZ=             18.5997   YZ=              9.8965
 Traceless Quadrupole moment (field-independent basis, Debye-Ang):
   XX=             47.5052   YY=             -6.8422   ZZ=            -40.6630
   XY=             17.7176   XZ=             18.5997   YZ=              9.8965
 Octapole moment (field-independent basis, Debye-Ang**2):
  XXX=            -14.4972  YYY=            107.3292  ZZZ=             31.3041  XYY=             44.6486
  XXY=            -51.1725  XXZ=             45.9452  XZZ=             -2.6854  YZZ=             -5.3591
  YYZ=            -11.8104  XYZ=             50.5570
 Hexadecapole moment (field-independent basis, Debye-Ang**3):
 XXXX=          -2431.1037 YYYY=          -2341.3788 ZZZZ=          -1261.9415 XXXY=             91.7381
 XXXZ=            147.6679 YYYX=            -17.4867 YYYZ=              9.8621 ZZZX=             75.7038
 ZZZY=             42.2312 XXYY=           -914.6908 XXZZ=           -833.2406 YYZZ=           -721.4724
 XXYZ=             76.4717 YYXZ=             26.1603 ZZXY=             25.2402
 N-N= 7.270121661597D+02 E-N=-2.746521476678D+03  KE= 5.366351836353D+02
 Unable to Open any file for archive entry.
 1\1\GINC-MPCL104\SP\RCAM-B3LYP TD-FC\Gen\C8H12Br2N4Pb1\EDBA4025\11-Nov
 -2020\0\\# cam-b3lyp/gen pseudo=read TD=NStates=10 Geom=Check Guess=Re
 ad empiricaldispersion=gd3bj SCRF=(Solvent=CH3CN)\\PbBr2_acn\\0,1\Pb,0
 ,-0.1803901869,-0.245835917,-0.6867664274\Br,0,0.6475585649,-2.2100433
 709,1.2160880565\Br,0,-1.9940921456,1.0993975934,1.1019360764\C,0,-0.3
 826104023,4.254279085,-0.5171577031\H,0,0.597755523,4.6646949783,-0.20
 69967442\H,0,-0.9857704445,5.0595857436,-0.9785036383\H,0,-0.915931676
 7,3.857063386,0.3711895056\C,0,-0.1937846134,3.1630945576,-1.455347189
 7\N,0,-0.0481950161,2.2533181318,-2.1864277088\C,0,4.1466901777,-1.382
 2917743,-0.296840587\H,0,4.7381847063,-0.4897813449,-0.0151262395\H,0,
 4.8275785249,-2.1627344551,-0.6871666769\H,0,3.6133373391,-1.771134239
 8,0.5952400839\C,0,3.1545545258,-1.0296616478,-1.2954795925\N,0,2.3205
 067175,-0.7432944791,-2.0738514839\C,0,-4.5401003374,-1.653700275,0.04
 79333071\H,0,-5.3924936821,-1.4739267444,-0.6348307605\H,0,-4.74013566
 01,-2.5571491453,0.6552339015\H,0,-4.4108388771,-0.7785266415,0.717941
 0377\C,0,-3.3149331911,-1.8194876913,-0.7098481659\N,0,-2.3085553556,-
 1.929572622,-1.3077859398\C,0,3.3522416484,2.6305610121,1.8092428336\H
 ,0,4.3623430854,2.2102319357,1.6393013942\H,0,3.3277103591,3.677637679
 8,1.4505700821\H,0,3.1273041063,2.610902337,2.8929609852\C,0,2.3688667
 607,1.8440352573,1.090661886\N,0,1.5750295499,1.2082586508,0.509869707
 6\\Version=ES64L-G16RevC.01\State=1-A\HF=-560.8947587\RMSD=6.993e-09\P
 G=C01 [X(C8H12Br2N4Pb1)]\\@
 The archive entry for this job was punched.


 I KNOW YOU BELIEVE YOU UNDERSTAND WHAT YOU THINK I SAID,
 BUT I AM NOT SURE YOU REALIZE THAT WHAT YOU HEARD IS NOT WHAT I MEANT.
 Job cpu time:       0 days  1 hours 51 minutes 12.6 seconds.
 Elapsed time:       0 days  0 hours 15 minutes 54.8 seconds.
 File lengths (MBytes):  RWF=   1716 Int=      0 D2E=      0 Chk=    536 Scr=      1
 Normal termination of Gaussian 16 at Wed Nov 11 18:33:07 2020.
