 Entering Gaussian System, Link 0=g16
 Input=02-PbBr2_dmso_22800215.com
 Output=02-PbBr2_dmso_22800215.log
 Initial command:
 /cm/shared/uniol/software/gaussian/g16.c01/g16/l1.exe "/scratch/22800215_edba4025/Gau-13590.inp" -scrdir="/scratch/22800215_edba4025/"
 Entering Link 1 = /cm/shared/uniol/software/gaussian/g16.c01/g16/l1.exe PID=     13591.
  
 Copyright (c) 1988-2019, Gaussian, Inc.  All Rights Reserved.
  
 This is part of the Gaussian(R) 16 program.  It is based on
 the Gaussian(R) 09 system (copyright 2009, Gaussian, Inc.),
 the Gaussian(R) 03 system (copyright 2003, Gaussian, Inc.),
 the Gaussian(R) 98 system (copyright 1998, Gaussian, Inc.),
 the Gaussian(R) 94 system (copyright 1995, Gaussian, Inc.),
 the Gaussian 92(TM) system (copyright 1992, Gaussian, Inc.),
 the Gaussian 90(TM) system (copyright 1990, Gaussian, Inc.),
 the Gaussian 88(TM) system (copyright 1988, Gaussian, Inc.),
 the Gaussian 86(TM) system (copyright 1986, Carnegie Mellon
 University), and the Gaussian 82(TM) system (copyright 1983,
 Carnegie Mellon University). Gaussian is a federally registered
 trademark of Gaussian, Inc.
  
 This software contains proprietary and confidential information,
 including trade secrets, belonging to Gaussian, Inc.
  
 This software is provided under written license and may be
 used, copied, transmitted, or stored only in accord with that
 written license.
  
 The following legend is applicable only to US Government
 contracts under FAR:
  
                    RESTRICTED RIGHTS LEGEND
  
 Use, reproduction and disclosure by the US Government is
 subject to restrictions as set forth in subparagraphs (a)
 and (c) of the Commercial Computer Software - Restricted
 Rights clause in FAR 52.227-19.
  
 Gaussian, Inc.
 340 Quinnipiac St., Bldg. 40, Wallingford CT 06492
  
  
 ---------------------------------------------------------------
 Warning -- This program may not be used in any manner that
 competes with the business of Gaussian, Inc. or will provide
 assistance to any competitor of Gaussian, Inc.  The licensee
 of this program is prohibited from giving any competitor of
 Gaussian, Inc. access to this program.  By using this program,
 the user acknowledges that Gaussian, Inc. is engaged in the
 business of creating and licensing software in the field of
 computational chemistry and represents and warrants to the
 licensee that it is not a competitor of Gaussian, Inc. and that
 it will not use this program in any manner prohibited above.
 ---------------------------------------------------------------
  

 Cite this work as:
 Gaussian 16, Revision C.01,
 M. J. Frisch, G. W. Trucks, H. B. Schlegel, G. E. Scuseria, 
 M. A. Robb, J. R. Cheeseman, G. Scalmani, V. Barone, 
 G. A. Petersson, H. Nakatsuji, X. Li, M. Caricato, A. V. Marenich, 
 J. Bloino, B. G. Janesko, R. Gomperts, B. Mennucci, H. P. Hratchian, 
 J. V. Ortiz, A. F. Izmaylov, J. L. Sonnenberg, D. Williams-Young, 
 F. Ding, F. Lipparini, F. Egidi, J. Goings, B. Peng, A. Petrone, 
 T. Henderson, D. Ranasinghe, V. G. Zakrzewski, J. Gao, N. Rega, 
 G. Zheng, W. Liang, M. Hada, M. Ehara, K. Toyota, R. Fukuda, 
 J. Hasegawa, M. Ishida, T. Nakajima, Y. Honda, O. Kitao, H. Nakai, 
 T. Vreven, K. Throssell, J. A. Montgomery, Jr., J. E. Peralta, 
 F. Ogliaro, M. J. Bearpark, J. J. Heyd, E. N. Brothers, K. N. Kudin, 
 V. N. Staroverov, T. A. Keith, R. Kobayashi, J. Normand, 
 K. Raghavachari, A. P. Rendell, J. C. Burant, S. S. Iyengar, 
 J. Tomasi, M. Cossi, J. M. Millam, M. Klene, C. Adamo, R. Cammi, 
 J. W. Ochterski, R. L. Martin, K. Morokuma, O. Farkas, 
 J. B. Foresman, and D. J. Fox, Gaussian, Inc., Wallingford CT, 2019.
 
 ******************************************
 Gaussian 16:  ES64L-G16RevC.01  3-Jul-2019
                11-Nov-2020 
 ******************************************
 %oldChk=01-PbBr2_dmso
 %chk=02-PbBr2_dmso
 %mem=16GB
 %NProcShared=7
 Will use up to    7 processors via shared memory.
 Copying data from "01-PbBr2_dmso.chk" to current chk file "02-PbBr2_dmso.chk"
 IOpt=  2 FromEx=T IUOpen= 4 IOptOp= 5 NList=   0 IFRang= 0 IUIn= 4 IUOut= 2.
 ----------------------------------------------------------------------
 # cam-b3lyp/gen pseudo=read TD=NStates=10 Geom=Check Guess=Read empiri
 caldispersion=gd3bj SCRF=(Solvent=DMSO)
 ----------------------------------------------------------------------
 1/29=2,38=1,172=1/1;
 2/12=2,40=1/2;
 3/5=7,11=9,14=-4,16=1,17=8,25=1,30=1,70=2201,72=21,74=-40,116=-2,124=41/1,2,3,8;
 4/5=1/1;
 5/5=2,38=6,53=21/2;
 8/6=1,10=1,108=10/1;
 9/41=10,42=1,70=2/14;
 6/7=2,8=2,9=2,10=2/1;
 99/5=1,9=1/99;
 ----------
 PbBr2_dmso
 ----------
 Structure from the checkpoint file:  "02-PbBr2_dmso.chk"
 Charge =  0 Multiplicity = 1
 Redundant internal coordinates found in file.  (old form).
 Pb,0,-0.028389025,-0.070644573,-0.2105972033
 Br,0,-2.8588155708,0.5733810924,-1.657101987
 Br,0,0.574233218,-2.7252539364,-1.7913232343
 O,0,-0.4682610317,1.7302229519,1.3603855492
 S,0,-0.8930629315,3.2412617261,1.1408924161
 C,0,-2.7166553408,3.2464809164,1.2397191456
 C,0,-0.7405169114,3.59584614,-0.6456688635
 H,0,-2.9792537068,2.961512045,2.2746265656
 H,0,0.2932956395,3.3072573179,-0.9212065166
 H,0,-3.0660653848,4.2745149913,1.0240200608
 H,0,-0.9213144482,4.6784816953,-0.7859516068
 H,0,-3.1016465547,2.5172485515,0.4993543904
 H,0,-1.4721574401,2.972857022,-1.1989840927
 O,0,1.8294905039,-0.2856705826,1.2840728493
 S,0,2.8120932405,-1.4512537229,1.7285986031
 C,0,1.8009284875,-2.9613116035,1.8645342356
 C,0,3.7587780788,-1.896299789,0.2342244613
 H,0,1.0042184421,-2.7247776203,2.5913645485
 H,0,4.3675177321,-1.0103604745,-0.0218214235
 H,0,2.466288018,-3.7665037128,2.2306633677
 H,0,4.409134963,-2.7545087629,0.4907063836
 H,0,1.3653472445,-3.1916947327,0.8720152034
 H,0,3.0398507393,-2.1495192442,-0.5716896813
 O,0,1.6831691238,1.6239234683,-1.1018984948
 S,0,3.1071619107,1.7506559657,-0.4223431005
 C,0,2.8405431808,2.6855162224,1.1236608722
 C,0,3.9183486357,3.0587837725,-1.3999192467
 H,0,2.1619872038,2.0487959235,1.7191129247
 H,0,4.0634199274,2.6454617571,-2.4143997132
 H,0,3.8195127543,2.8079216072,1.6255331037
 H,0,4.8965442219,3.2901645888,-0.9365501137
 H,0,2.3841994663,3.6655966296,0.8894112335
 H,0,3.2624181014,3.9489926651,-1.4270072234
 O,0,-0.8691685696,-1.3529692479,1.6593839184
 S,0,-2.3126610314,-1.9224488627,1.9771822826
 C,0,-2.922555136,-2.6756664431,0.4303879851
 C,0,-3.414154599,-0.4688829876,2.0230199359
 H,0,-2.2075565956,-3.4798796474,0.1779260028
 H,0,-3.0327503069,0.1733869642,2.8372738731
 H,0,-3.9273251028,-3.0939166929,0.6327612915
 H,0,-4.4383070451,-0.8210591152,2.2518970238
 H,0,-2.9526559218,-1.9008621915,-0.3629607425
 H,0,-3.3652381793,0.0440099288,1.0415350165
 Recover connectivity data from disk.
                           ----------------------------
                           !    Current Parameters    !
                           ! (Angstroms and Degrees)  !
 --------------------------                            --------------------------
 ! Name  Definition              Value                                          !
 --------------------------------------------------------------------------------
 ! R1    R(1,4)                  2.4299                                         !
 ! R2    R(1,14)                 2.3942                                         !
 ! R3    R(1,34)                 2.4183                                         !
 ! R4    R(2,12)                 2.9134                                         !
 ! R5    R(2,13)                 2.8089                                         !
 ! R6    R(2,42)                 2.7938                                         !
 ! R7    R(2,43)                 2.7963                                         !
 ! R8    R(3,22)                 2.8172                                         !
 ! R9    R(3,23)                 2.8104                                         !
 ! R10   R(4,5)                  1.5849                                         !
 ! R11   R(5,6)                  1.8263                                         !
 ! R12   R(5,7)                  1.8278                                         !
 ! R13   R(6,8)                  1.1051                                         !
 ! R14   R(6,10)                 1.107                                          !
 ! R15   R(6,12)                 1.1082                                         !
 ! R16   R(7,9)                  1.1081                                         !
 ! R17   R(7,11)                 1.1066                                         !
 ! R18   R(7,13)                 1.1089                                         !
 ! R19   R(9,24)                 2.1904                                         !
 ! R20   R(14,15)                1.588                                          !
 ! R21   R(15,16)                1.8224                                         !
 ! R22   R(15,17)                1.8241                                         !
 ! R23   R(16,18)                1.1041                                         !
 ! R24   R(16,20)                1.1068                                         !
 ! R25   R(16,22)                1.1081                                         !
 ! R26   R(17,19)                1.105                                          !
 ! R27   R(17,21)                1.1069                                         !
 ! R28   R(17,23)                1.1093                                         !
 ! R29   R(24,25)                1.5829                                         !
 ! R30   R(25,26)                1.8262                                         !
 ! R31   R(25,27)                1.8234                                         !
 ! R32   R(26,28)                1.1047                                         !
 ! R33   R(26,30)                1.1069                                         !
 ! R34   R(26,32)                1.1062                                         !
 ! R35   R(27,29)                1.105                                          !
 ! R36   R(27,31)                1.1068                                         !
 ! R37   R(27,33)                1.1061                                         !
 ! R38   R(34,35)                1.584                                          !
 ! R39   R(35,36)                1.8253                                         !
 ! R40   R(35,37)                1.8243                                         !
 ! R41   R(36,38)                1.1053                                         !
 ! R42   R(36,40)                1.107                                          !
 ! R43   R(36,42)                1.1093                                         !
 ! R44   R(37,39)                1.105                                          !
 ! R45   R(37,41)                1.1069                                         !
 ! R46   R(37,43)                1.1085                                         !
 ! A1    A(4,1,14)              78.6629                                         !
 ! A2    A(4,1,34)              80.2193                                         !
 ! A3    A(14,1,34)             74.8958                                         !
 ! A4    A(12,2,13)             49.4941                                         !
 ! A5    A(12,2,42)            104.1954                                         !
 ! A6    A(12,2,43)             52.9066                                         !
 ! A7    A(13,2,42)            134.2304                                         !
 ! A8    A(13,2,43)             95.3778                                         !
 ! A9    A(42,2,43)             51.6274                                         !
 ! A10   A(22,3,23)             51.4854                                         !
 ! A11   A(1,4,5)              131.7258                                         !
 ! A12   A(4,5,6)              105.2404                                         !
 ! A13   A(4,5,7)              107.3348                                         !
 ! A14   A(6,5,7)               97.7977                                         !
 ! A15   A(5,6,8)              106.6916                                         !
 ! A16   A(5,6,10)             107.8954                                         !
 ! A17   A(5,6,12)             107.9902                                         !
 ! A18   A(8,6,10)             110.3007                                         !
 ! A19   A(8,6,12)             111.9261                                         !
 ! A20   A(10,6,12)            111.7932                                         !
 ! A21   A(5,7,9)              105.6869                                         !
 ! A22   A(5,7,11)             107.4625                                         !
 ! A23   A(5,7,13)             108.8856                                         !
 ! A24   A(9,7,11)             112.0678                                         !
 ! A25   A(9,7,13)             110.192                                          !
 ! A26   A(11,7,13)            112.2481                                         !
 ! A27   A(7,9,24)             144.3514                                         !
 ! A28   A(2,12,6)             154.7675                                         !
 ! A29   A(2,13,7)             152.5027                                         !
 ! A30   A(1,14,15)            136.1251                                         !
 ! A31   A(14,15,16)           106.6037                                         !
 ! A32   A(14,15,17)           105.7169                                         !
 ! A33   A(16,15,17)            98.4474                                         !
 ! A34   A(15,16,18)           105.7816                                         !
 ! A35   A(15,16,20)           107.0927                                         !
 ! A36   A(15,16,22)           108.8786                                         !
 ! A37   A(18,16,20)           111.8312                                         !
 ! A38   A(18,16,22)           110.52                                           !
 ! A39   A(20,16,22)           112.4164                                         !
 ! A40   A(15,17,19)           106.2675                                         !
 ! A41   A(15,17,21)           107.7135                                         !
 ! A42   A(15,17,23)           108.3325                                         !
 ! A43   A(19,17,21)           110.5871                                         !
 ! A44   A(19,17,23)           111.8215                                         !
 ! A45   A(21,17,23)           111.848                                          !
 ! A46   A(3,22,16)            157.3273                                         !
 ! A47   A(3,23,17)            158.5383                                         !
 ! A48   A(9,24,25)            118.286                                          !
 ! A49   A(24,25,26)           105.8475                                         !
 ! A50   A(24,25,27)           103.1489                                         !
 ! A51   A(26,25,27)            98.7173                                         !
 ! A52   A(25,26,28)           104.5323                                         !
 ! A53   A(25,26,30)           108.1385                                         !
 ! A54   A(25,26,32)           109.5422                                         !
 ! A55   A(28,26,30)           111.2593                                         !
 ! A56   A(28,26,32)           111.8019                                         !
 ! A57   A(30,26,32)           111.2777                                         !
 ! A58   A(25,27,29)           106.3953                                         !
 ! A59   A(25,27,31)           108.5837                                         !
 ! A60   A(25,27,33)           109.0683                                         !
 ! A61   A(29,27,31)           110.2738                                         !
 ! A62   A(29,27,33)           110.8797                                         !
 ! A63   A(31,27,33)           111.4749                                         !
 ! A64   A(1,34,35)            131.5006                                         !
 ! A65   A(34,35,36)           106.4293                                         !
 ! A66   A(34,35,37)           105.5935                                         !
 ! A67   A(36,35,37)            98.5303                                         !
 ! A68   A(35,36,38)           106.12                                           !
 ! A69   A(35,36,40)           107.7137                                         !
 ! A70   A(35,36,42)           109.0796                                         !
 ! A71   A(38,36,40)           110.7317                                         !
 ! A72   A(38,36,42)           111.2465                                         !
 ! A73   A(40,36,42)           111.7154                                         !
 ! A74   A(35,37,39)           105.8564                                         !
 ! A75   A(35,37,41)           108.0787                                         !
 ! A76   A(35,37,43)           108.6487                                         !
 ! A77   A(39,37,41)           110.6046                                         !
 ! A78   A(39,37,43)           111.6101                                         !
 ! A79   A(41,37,43)           111.7842                                         !
 ! A80   A(2,42,36)            161.6048                                         !
 ! A81   A(2,43,37)            161.8194                                         !
 ! D1    D(14,1,4,5)           134.2822                                         !
 ! D2    D(34,1,4,5)          -149.3165                                         !
 ! D3    D(4,1,14,15)          155.1656                                         !
 ! D4    D(34,1,14,15)          72.3662                                         !
 ! D5    D(4,1,34,35)           96.5614                                         !
 ! D6    D(14,1,34,35)         177.3492                                         !
 ! D7    D(13,2,12,6)          -38.1182                                         !
 ! D8    D(42,2,12,6)           98.7868                                         !
 ! D9    D(43,2,12,6)          105.0547                                         !
 ! D10   D(12,2,13,7)           71.2119                                         !
 ! D11   D(42,2,13,7)            3.6384                                         !
 ! D12   D(43,2,13,7)           42.5116                                         !
 ! D13   D(12,2,42,36)         -16.2069                                         !
 ! D14   D(13,2,42,36)          30.2596                                         !
 ! D15   D(43,2,42,36)         -22.5845                                         !
 ! D16   D(12,2,43,37)        -153.4691                                         !
 ! D17   D(13,2,43,37)        -126.2263                                         !
 ! D18   D(42,2,43,37)          18.7719                                         !
 ! D19   D(23,3,22,16)          48.0627                                         !
 ! D20   D(22,3,23,17)         -28.5347                                         !
 ! D21   D(1,4,5,6)             93.4156                                         !
 ! D22   D(1,4,5,7)            -10.02                                           !
 ! D23   D(4,5,6,8)             65.2195                                         !
 ! D24   D(4,5,6,10)          -176.2616                                         !
 ! D25   D(4,5,6,12)           -55.2612                                         !
 ! D26   D(7,5,6,8)            175.6462                                         !
 ! D27   D(7,5,6,10)           -65.835                                          !
 ! D28   D(7,5,6,12)            55.1654                                         !
 ! D29   D(4,5,7,9)            -53.6693                                         !
 ! D30   D(4,5,7,11)          -173.5                                            !
 ! D31   D(4,5,7,13)            64.6897                                         !
 ! D32   D(6,5,7,9)           -162.374                                          !
 ! D33   D(6,5,7,11)            77.7953                                         !
 ! D34   D(6,5,7,13)           -44.015                                          !
 ! D35   D(5,6,12,2)            -3.7667                                         !
 ! D36   D(8,6,12,2)          -120.9117                                         !
 ! D37   D(10,6,12,2)          114.774                                          !
 ! D38   D(5,7,9,24)            65.2164                                         !
 ! D39   D(11,7,9,24)         -178.0281                                         !
 ! D40   D(13,7,9,24)          -52.2677                                         !
 ! D41   D(5,7,13,2)           -40.0061                                         !
 ! D42   D(9,7,13,2)            75.4799                                         !
 ! D43   D(11,7,13,2)         -158.8619                                         !
 ! D44   D(7,9,24,25)         -129.521                                          !
 ! D45   D(1,14,15,16)         -39.0832                                         !
 ! D46   D(1,14,15,17)          64.9898                                         !
 ! D47   D(14,15,16,18)        -57.3741                                         !
 ! D48   D(14,15,16,20)       -176.7939                                         !
 ! D49   D(14,15,16,22)         61.4172                                         !
 ! D50   D(17,15,16,18)       -166.6462                                         !
 ! D51   D(17,15,16,20)         73.934                                          !
 ! D52   D(17,15,16,22)        -47.8549                                         !
 ! D53   D(14,15,17,19)         65.1486                                         !
 ! D54   D(14,15,17,21)       -176.3141                                         !
 ! D55   D(14,15,17,23)        -55.157                                          !
 ! D56   D(16,15,17,19)        175.1411                                         !
 ! D57   D(16,15,17,21)        -66.3217                                         !
 ! D58   D(16,15,17,23)         54.8355                                         !
 ! D59   D(15,16,22,3)         -16.0824                                         !
 ! D60   D(18,16,22,3)          99.6962                                         !
 ! D61   D(20,16,22,3)        -134.5772                                         !
 ! D62   D(15,17,23,3)          -9.5165                                         !
 ! D63   D(19,17,23,3)        -126.2955                                         !
 ! D64   D(21,17,23,3)         109.0502                                         !
 ! D65   D(9,24,25,26)          36.0083                                         !
 ! D66   D(9,24,25,27)         -67.1771                                         !
 ! D67   D(24,25,26,28)         62.0937                                         !
 ! D68   D(24,25,26,30)       -179.281                                          !
 ! D69   D(24,25,26,32)        -57.8491                                         !
 ! D70   D(27,25,26,28)        168.5187                                         !
 ! D71   D(27,25,26,30)        -72.856                                          !
 ! D72   D(27,25,26,32)         48.5759                                         !
 ! D73   D(24,25,27,29)        -66.6549                                         !
 ! D74   D(24,25,27,31)        174.6605                                         !
 ! D75   D(24,25,27,33)         53.0007                                         !
 ! D76   D(26,25,27,29)       -175.2892                                         !
 ! D77   D(26,25,27,31)         66.0262                                         !
 ! D78   D(26,25,27,33)        -55.6336                                         !
 ! D79   D(1,34,35,36)          45.0296                                         !
 ! D80   D(1,34,35,37)         -59.0253                                         !
 ! D81   D(34,35,36,38)         60.6054                                         !
 ! D82   D(34,35,36,40)        179.2341                                         !
 ! D83   D(34,35,36,42)        -59.3353                                         !
 ! D84   D(37,35,36,38)        169.7297                                         !
 ! D85   D(37,35,36,40)        -71.6417                                         !
 ! D86   D(37,35,36,42)         49.789                                          !
 ! D87   D(34,35,37,39)        -61.0048                                         !
 ! D88   D(34,35,37,41)       -179.5307                                         !
 ! D89   D(34,35,37,43)         58.9904                                         !
 ! D90   D(36,35,37,39)       -170.8076                                         !
 ! D91   D(36,35,37,41)         70.6665                                         !
 ! D92   D(36,35,37,43)        -50.8124                                         !
 ! D93   D(35,36,42,2)          -9.2966                                         !
 ! D94   D(38,36,42,2)        -126.0208                                         !
 ! D95   D(40,36,42,2)         109.6694                                         !
 ! D96   D(35,37,43,2)          14.2305                                         !
 ! D97   D(39,37,43,2)         130.5807                                         !
 ! D98   D(41,37,43,2)        -104.9513                                         !
 --------------------------------------------------------------------------------
                          Input orientation:                          
 ---------------------------------------------------------------------
 Center     Atomic      Atomic             Coordinates (Angstroms)
 Number     Number       Type             X           Y           Z
 ---------------------------------------------------------------------
      1         82           0       -0.028389   -0.070645   -0.210597
      2         35           0       -2.858816    0.573381   -1.657102
      3         35           0        0.574233   -2.725254   -1.791323
      4          8           0       -0.468261    1.730223    1.360386
      5         16           0       -0.893063    3.241262    1.140892
      6          6           0       -2.716655    3.246481    1.239719
      7          6           0       -0.740517    3.595846   -0.645669
      8          1           0       -2.979254    2.961512    2.274627
      9          1           0        0.293296    3.307257   -0.921207
     10          1           0       -3.066065    4.274515    1.024020
     11          1           0       -0.921314    4.678482   -0.785952
     12          1           0       -3.101647    2.517249    0.499354
     13          1           0       -1.472157    2.972857   -1.198984
     14          8           0        1.829491   -0.285671    1.284073
     15         16           0        2.812093   -1.451254    1.728599
     16          6           0        1.800928   -2.961312    1.864534
     17          6           0        3.758778   -1.896300    0.234224
     18          1           0        1.004218   -2.724778    2.591365
     19          1           0        4.367518   -1.010360   -0.021821
     20          1           0        2.466288   -3.766504    2.230663
     21          1           0        4.409135   -2.754509    0.490706
     22          1           0        1.365347   -3.191695    0.872015
     23          1           0        3.039851   -2.149519   -0.571690
     24          8           0        1.683169    1.623923   -1.101898
     25         16           0        3.107162    1.750656   -0.422343
     26          6           0        2.840543    2.685516    1.123661
     27          6           0        3.918349    3.058784   -1.399919
     28          1           0        2.161987    2.048796    1.719113
     29          1           0        4.063420    2.645462   -2.414400
     30          1           0        3.819513    2.807922    1.625533
     31          1           0        4.896544    3.290165   -0.936550
     32          1           0        2.384199    3.665597    0.889411
     33          1           0        3.262418    3.948993   -1.427007
     34          8           0       -0.869169   -1.352969    1.659384
     35         16           0       -2.312661   -1.922449    1.977182
     36          6           0       -2.922555   -2.675666    0.430388
     37          6           0       -3.414155   -0.468883    2.023020
     38          1           0       -2.207557   -3.479880    0.177926
     39          1           0       -3.032750    0.173387    2.837274
     40          1           0       -3.927325   -3.093917    0.632761
     41          1           0       -4.438307   -0.821059    2.251897
     42          1           0       -2.952656   -1.900862   -0.362961
     43          1           0       -3.365238    0.044010    1.041535
 ---------------------------------------------------------------------
                    Distance matrix (angstroms):
                    1          2          3          4          5
     1  Pb   0.000000
     2  Br   3.243217   0.000000
     3  Br   3.147825   4.762860   0.000000
     4  O    2.429938   4.019734   5.556198   0.000000
     5  S    3.680069   4.337112   6.808095   1.584889   0.000000
     6  C    4.509270   3.944267   7.461822   2.714567   1.826276
     7  C    3.760262   3.826941   6.557240   2.752985   1.827786
     8  H    4.906925   4.601757   7.842099   2.942277   2.390775
     9  H    3.466795   4.236912   6.101411   2.876225   2.379927
    10  H    5.443544   4.574905   8.377034   3.651733   2.408985
    11  H    4.866472   4.622193   7.619891   3.674813   2.403982
    12  H    4.079967   2.913399   6.800230   2.880192   2.411142
    13  H    3.510595   2.808946   6.083342   3.017005   2.425369
    14  O    2.394158   5.600776   4.121322   3.057665   4.457808
    15  S    3.706063   6.908062   4.361301   4.584550   6.007768
    16  C    4.001066   6.827092   3.863392   5.235827   6.800968
    17  C    4.227708   7.312249   3.864108   5.682232   6.989722
    18  H    3.995208   6.621960   4.403730   4.850828   6.426288
    19  H    4.499189   7.576429   4.523384   5.727657   6.863083
    20  H    5.083556   7.893418   4.565134   6.291499   7.847395
    21  H    5.233218   8.277139   4.462621   6.682676   8.030274
    22  H    3.585457   6.198047   2.817233   5.275026   6.823169
    23  H    3.723735   6.586848   2.810382   5.576035   6.889214
    24  O    2.568153   4.694839   4.540968   3.271512   3.779268
    25  S    3.632307   6.205118   5.321992   3.995271   4.546142
    26  C    4.196122   6.684044   6.550552   3.452073   3.774780
    27  C    5.175379   7.223110   6.692638   5.350393   5.444144
    28  H    3.607431   6.227691   6.134792   2.673645   3.330112
    29  H    5.383018   7.265285   6.434845   5.968484   6.128768
    30  H    5.144304   7.769745   7.267928   4.429079   4.757208
    31  H    6.006414   8.248983   7.456425   6.040734   6.151236
    32  H    4.581495   6.598161   7.162771   3.479083   3.314174
    33  H    5.335405   6.994083   7.204487   5.158533   4.935890
    34  O    2.418284   4.320717   3.984213   3.123492   4.623458
    35  S    3.665168   4.442463   4.814591   4.138147   5.420198
    36  C    3.946289   3.862381   4.143186   5.128383   6.295530
    37  C    4.075665   3.864973   5.962186   3.735430   4.571567
    38  H    4.064801   4.496709   3.490810   5.618588   6.915847
    39  H    4.286637   4.515491   6.544949   3.343881   4.107046
    40  H    5.005310   4.453567   5.126024   5.980542   7.042686
    41  H    5.106308   4.440668   6.715590   4.802614   5.505047
    42  H    3.453150   2.793830   3.893429   4.725137   5.739768
    43  H    3.565886   2.796308   5.586890   3.367114   4.042764
                    6          7          8          9         10
     6  C    0.000000
     7  C    2.753519   0.000000
     8  H    1.105079   3.733959   0.000000
     9  H    3.705820   1.108139   4.587207   0.000000
    10  H    1.107008   2.942215   1.815359   4.000600   0.000000
    11  H    3.062224   1.106556   4.068198   1.836798   2.835338
    12  H    1.108214   2.837144   1.834105   3.764006   1.834264
    13  H    2.751530   1.108860   3.786481   1.818188   3.029291
    14  O    5.757213   5.039347   5.886375   4.486901   6.695475
    15  S    7.271504   6.612972   7.301394   6.000770   8.236116
    16  C    7.702963   7.467020   7.622215   7.023408   8.760781
    17  C    8.330093   7.154127   8.553517   6.357798   9.234783
    18  H    7.164341   7.312508   6.949983   7.016339   8.247053
    19  H    8.360484   6.906399   8.661668   6.004165   9.180515
    20  H    8.776493   8.530011   8.655753   8.043275   9.834679
    21  H    9.346111   8.254530   9.510182   7.461812  10.274737
    22  H    7.632041   7.266962   7.661908   6.826516   8.683594
    23  H    8.095393   6.877927   8.393675   6.118998   9.005372
    24  O    5.241595   3.157670   5.910013   2.190436   5.839554
    25  S    6.238332   4.273082   6.766408   3.254184   6.824263
    26  C    5.586645   4.096733   5.938934   3.325134   6.117423
    27  C    7.143262   4.749985   7.815924   3.664958   7.492364
    28  H    5.046327   4.050937   5.251096   3.470882   5.724466
    29  H    7.725492   5.206673   8.466765   4.108703   8.081219
    30  H    6.562216   5.154906   6.831408   4.378290   7.065685
    31  H    7.918261   5.652832   8.511631   4.603306   8.259294
    32  H    5.130019   3.482124   5.584012   2.789018   5.485826
    33  H    6.584396   4.093738   7.323638   3.079504   6.794351
    34  O    4.974361   5.460824   4.842079   5.452383   6.074424
    35  S    5.236879   6.308927   4.938207   6.522384   6.314942
    36  C    5.980739   6.726891   5.931460   6.925596   6.976963
    37  C    3.860569   5.549078   3.466995   6.055815   4.859937
    38  H    6.828654   7.272992   6.817859   7.316255   7.847519
    39  H    3.477931   5.394298   2.844833   5.916916   4.484222
    40  H    6.483422   7.519512   6.345296   7.823266   7.428906
    41  H    4.531387   6.448146   4.054281   7.035599   5.418081
    42  H    5.396241   5.931887   5.531750   6.162171   6.330234
    43  H    3.273493   4.727722   3.190818   5.280720   4.241106
                   11         12         13         14         15
    11  H    0.000000
    12  H    3.328181   0.000000
    13  H    1.839342   2.397325   0.000000
    14  O    6.041087   5.726103   5.261602   0.000000
    15  S    7.604929   7.227197   6.818966   1.587985   0.000000
    16  C    8.532416   7.477538   7.437244   2.738030   1.822418
    17  C    8.134604   8.161809   7.288722   2.723685   1.824125
    18  H    8.361949   6.979504   7.277515   2.887790   2.373740
    19  H    7.805035   8.276718   7.166138   2.944846   2.382793
    20  H    9.586115   8.572332   8.526008   3.663024   2.394166
    21  H    9.235415   9.176238   8.381371   3.657753   2.404453
    22  H    8.361660   7.258439   7.095222   2.971565   2.419906
    23  H    7.896729   7.787416   6.854958   2.895299   2.414700
    24  O    4.026597   5.124110   3.432948   3.059545   4.329307
    25  S    4.993295   6.323487   4.802823   2.948038   3.868571
    26  C    4.665844   5.977265   4.906794   3.142596   4.180864
    27  C    5.140303   7.292519   5.394934   4.769960   5.599273
    28  H    4.764173   5.423384   4.751440   2.397821   3.559926
    29  H    5.624286   7.735928   5.676886   5.221176   5.959306
    30  H    5.638235   7.018206   6.000573   3.694198   4.377909
    31  H    5.983108   8.162737   6.381999   5.208127   5.824861
    32  H    3.841770   5.618305   4.439907   4.009485   5.202834
    33  H    4.294965   6.801623   4.839529   5.228347   6.270829
    34  O    6.508516   4.616082   5.219831   2.926217   3.683224
    35  S    7.289927   4.745249   5.895634   4.507423   5.152371
    36  C    7.718027   5.196460   6.055107   5.387281   6.005891
    37  C    6.371808   3.366927   5.098847   5.298625   6.310142
    38  H    8.315187   6.071924   6.638863   5.265385   5.631766
    39  H    6.154819   3.311239   5.154014   5.124895   6.166913
    40  H    8.453344   5.673158   6.796240   6.438275   7.022746
    41  H    7.200188   4.000296   5.924561   6.364638   7.296526
    42  H    6.898771   4.503941   5.161778   5.309472   6.148911
    43  H    5.548946   2.545653   4.145097   5.210827   6.392753
                   16         17         18         19         20
    16  C    0.000000
    17  C    2.761401   0.000000
    18  H    1.104073   3.718882   0.000000
    19  H    3.735228   1.104994   4.591269   0.000000
    20  H    1.106837   3.025551   1.831105   4.035429   0.000000
    21  H    2.955150   1.106919   4.000888   1.818370   2.797541
    22  H    1.108107   2.795235   1.817853   3.817092   1.840761
    23  H    2.851162   1.109267   3.805211   1.833777   3.285848
    24  O    5.462414   4.299459   5.745639   3.913023   6.385605
    25  S    5.398027   3.762442   5.790882   3.061393   6.155340
    26  C    5.789331   4.756815   5.898942   4.159722   6.556987
    27  C    7.168101   5.220033   7.607370   4.319588   7.866013
    28  H    5.025205   4.507595   4.988813   4.153752   5.845682
    29  H    7.407027   5.266461   7.953355   4.379719   8.077174
    30  H    6.116850   4.906030   6.282473   4.194444   6.739471
    31  H    7.517304   5.437337   7.985982   4.428444   8.107648
    32  H    6.723614   5.766579   6.755581   5.160278   7.552603
    33  H    7.792464   6.097008   8.110856   5.271715   8.575620
    34  O    3.123823   4.872800   2.502004   5.510600   4.156535
    35  S    4.244237   6.316721   3.467368   7.032262   5.128659
    36  C    4.944660   6.729495   4.482386   7.491522   5.785374
    37  C    5.782250   7.529161   4.993405   8.064056   6.745148
    38  H    4.379670   6.173171   4.087831   7.026381   5.112798
    39  H    5.842688   7.562032   4.975635   8.021200   6.791917
    40  H    5.860694   7.789050   5.319071   8.577535   6.624496
    41  H    6.607480   8.509956   5.775852   9.096603   7.506632
    42  H    5.355637   6.737952   5.006369   7.382026   6.290664
    43  H    6.033122   7.427527   5.400028   7.876417   7.066876
                   21         22         23         24         25
    21  H    0.000000
    22  H    3.098576   0.000000
    23  H    1.835657   2.444254   0.000000
    24  O    5.397958   5.214166   4.044821   0.000000
    25  S    4.777583   5.397788   3.903614   1.582913   0.000000
    26  C    5.696928   6.064745   5.127524   2.723896   1.826247
    27  C    6.132675   7.123762   5.346414   2.672764   1.823425
    28  H    5.443381   5.367956   4.862538   2.892730   2.359677
    29  H    6.141567   7.221670   5.237854   2.903755   2.383987
    30  H    5.707549   6.525804   5.478310   3.661243   2.412271
    31  H    6.229984   7.599655   5.759392   3.623462   2.415861
    32  H    6.743670   6.932590   6.031606   2.936867   2.431126
    33  H    7.066082   7.737816   6.162220   2.829429   2.422011
    34  O    5.584855   2.998987   4.570844   4.795936   5.456856
    35  S    6.934297   4.044765   5.932764   6.166373   6.973084
    36  C    7.332362   4.341362   6.068878   6.484371   7.528411
    37  C    8.293125   5.619800   7.156203   6.334640   7.309837
    38  H    6.663678   3.651089   5.465077   6.544043   7.480980
    39  H    8.334303   5.876162   7.341213   6.313559   7.128212
    40  H    8.344576   5.298979   7.133311   7.532908   8.606227
    41  H    9.225901   6.419220   8.103104   7.395834   8.408292
    42  H    7.460122   4.672961   6.001294   5.870351   7.075203
    43  H    8.281063   5.733843   6.959830   5.707613   6.851828
                   26         27         28         29         30
    26  C    0.000000
    27  C    2.769377   0.000000
    28  H    1.104724   3.719307   0.000000
    29  H    3.743649   1.105012   4.588832   0.000000
    30  H    1.106906   3.037443   1.825492   4.050548   0.000000
    31  H    2.972744   1.106849   4.008908   1.814877   2.820785
    32  H    1.106201   2.821856   1.830800   3.843907   1.826912
    33  H    2.877544   1.106097   3.836635   1.820918   3.306116
    34  O    5.509839   7.193276   4.556696   7.544110   6.268803
    35  S    6.965440   8.662735   5.988310   8.989227   7.752652
    36  C    7.901659   9.112185   7.059315   9.230984   8.772319
    37  C    7.062600   8.827602   6.125718   9.236014   7.951188
    38  H    8.024328   9.097826   7.213489   9.141395   8.829359
    39  H    6.613837   8.636961   5.634957   9.167708   7.440605
    40  H    8.913297  10.175564   8.044090  10.299401   9.789320
    41  H    8.157858   9.910733   7.216911  10.299051   9.041760
    42  H    7.536980   8.537217   6.789286   8.608297   8.484634
    43  H    6.745074   8.252284   5.918488   8.596278   7.720162
                   31         32         33         34         35
    31  H    0.000000
    32  H    3.128412   0.000000
    33  H    1.828926   2.493467   0.000000
    34  O    7.844808   6.030196   7.396392   0.000000
    35  S    9.361293   7.380379   8.783157   1.583974   0.000000
    36  C    9.929651   8.281544   9.251482   2.734292   1.825344
    37  C    9.589432   7.211096   8.717622   2.718601   1.824347
    38  H    9.876427   8.523395   9.364004   2.917147   2.382008
    39  H    9.318249   6.732982   8.489313   2.897978   2.377144
    40  H   11.003631   9.251607  10.273151   3.665675   2.405607
    41  H   10.686805   8.278469   9.776958   3.656877   2.409751
    42  H    9.427922   7.812549   8.601171   2.954824   2.426176
    43  H    9.094360   6.796695   8.078887   2.926372   2.418742
                   36         37         38         39         40
    36  C    0.000000
    37  C    2.765509   0.000000
    38  H    1.105314   3.731803   0.000000
    39  H    3.731266   1.104984   4.593412   0.000000
    40  H    1.107001   3.014459   1.820287   4.041709   0.000000
    41  H    3.009147   1.106933   4.043134   1.818565   2.837003
    42  H    1.109338   2.820718   1.827848   3.814502   1.834345
    43  H    2.822430   1.108497   3.808391   1.830837   3.213973
                   41         42         43
    41  H    0.000000
    42  H    3.195405   0.000000
    43  H    1.834338   2.434206   0.000000
 Stoichiometry    C8H24Br2O4PbS4
 Framework group  C1[X(C8H24Br2O4PbS4)]
 Deg. of freedom   123
 Full point group                 C1      NOp   1
 Largest Abelian subgroup         C1      NOp   1
 Largest concise Abelian subgroup C1      NOp   1
                         Standard orientation:                         
 ---------------------------------------------------------------------
 Center     Atomic      Atomic             Coordinates (Angstroms)
 Number     Number       Type             X           Y           Z
 ---------------------------------------------------------------------
      1         82           0       -0.027889   -0.071888   -0.211180
      2         35           0       -2.854661    0.586377   -1.658420
      3         35           0        0.562166   -2.729071   -1.792323
      4          8           0       -0.459391    1.730765    1.360077
      5         16           0       -0.876688    3.243924    1.140796
      6          6           0       -2.700264    3.258089    1.239055
      7          6           0       -0.721841    3.598159   -0.645637
      8          1           0       -2.964584    2.974180    2.273816
      9          1           0        0.310626    3.304552   -0.920918
     10          1           0       -3.044546    4.287878    1.023482
     11          1           0       -0.897268    4.681702   -0.785729
     12          1           0       -3.088605    2.530926    0.498404
     13          1           0       -1.456363    2.978901   -1.199322
     14          8           0        1.828443   -0.296387    1.284021
     15         16           0        2.805162   -1.466889    1.728587
     16          6           0        1.786541   -2.971987    1.863862
     17          6           0        3.750115   -1.916247    0.234406
     18          1           0        0.990777   -2.731702    2.590498
     19          1           0        4.363284   -1.033254   -0.021248
     20          1           0        2.447818   -3.780524    2.230015
     21          1           0        4.396163   -2.777702    0.490895
     22          1           0        1.350143   -3.200000    0.871155
     23          1           0        3.030203   -2.165745   -0.571790
     24          8           0        1.692261    1.614444   -1.101561
     25         16           0        3.116647    1.734018   -0.421532
     26          6           0        2.854145    2.669828    1.124602
     27          6           0        3.934563    3.038362   -1.398557
     28          1           0        2.172280    2.036317    1.719697
     29          1           0        4.077917    2.624562   -2.413086
     30          1           0        3.833548    2.787303    1.626807
     31          1           0        4.913739    3.264825   -0.934830
     32          1           0        2.402700    3.652194    0.890433
     33          1           0        3.283027    3.931792   -1.425646
     34          8           0       -0.875550   -1.350486    1.658247
     35         16           0       -2.321925   -1.912932    1.975465
     36          6           0       -2.935031   -2.662791    0.428309
     37          6           0       -3.416271   -0.453977    2.021291
     38          1           0       -2.223918   -3.470453    0.175886
     39          1           0       -3.031967    0.186225    2.835810
     40          1           0       -3.941909   -3.076140    0.630273
     41          1           0       -4.442214   -0.801164    2.249768
     42          1           0       -2.961073   -1.887668   -0.364873
     43          1           0       -3.364526    0.058891    1.039938
 ---------------------------------------------------------------------
 Rotational constants (GHZ):           0.1513687           0.1374205           0.1034607
 General basis read from cards:  (5D, 7F)
 ======================================================================================================
                                       Pseudopotential Parameters
 ======================================================================================================
  Center     Atomic      Valence      Angular      Power
  Number     Number     Electrons     Momentum     of R      Exponent        Coefficient   SO-Coeffient
 ======================================================================================================
    1         82            4
                                      G and up 
                                                     0      376.5803786       -0.17896050    0.00000000
                                                     1       86.4840014      -54.39723370    0.00000000
                                                     2       26.6784276     -199.70617590    0.00000000
                                                     2        9.4261986      -79.12239410    0.00000000
                                                     2        2.7101719      -24.98690200    0.00000000
                                                     2        0.8792031       -4.43979390    0.00000000
                                      S - G
                                                     0      132.4248796        2.81153860    0.00000000
                                                     1       47.2376044       65.03672050    0.00000000
                                                     2       17.6312727      212.78685450    0.00000000
                                                     2        5.4744712       72.10531750    0.00000000
                                                     2        1.2634856       33.01409400    0.00000000
                                                     2        0.7651447       -5.77084610    0.00000000
                                      P - G
                                                     0       67.8966454        4.87549110    0.00000000
                                                     1       24.9898225       63.91481020    0.00000000
                                                     2       10.7052939      148.10643580    0.00000000
                                                     2        3.2792568       47.31063010    0.00000000
                                                     2        0.8452522       21.03067020    0.00000000
                                                     2        0.6416245       -7.09307720    0.00000000
                                      D - G
                                                     0       68.8336005        3.21613880    0.00000000
                                                     1       24.2815874       55.73860860    0.00000000
                                                     2        9.4532762      121.41683510    0.00000000
                                                     2        2.4788185       19.34560640    0.00000000
                                                     2        2.4789161       15.36751680    0.00000000
                                                     2        0.5551738        6.12987240    0.00000000
                                      F - G
                                                     0      128.1021322        4.13536820    0.00000000
                                                     1       54.8029154       67.51284460    0.00000000
                                                     2       24.5529308      258.73731070    0.00000000
                                                     2        8.1144792      113.24782640    0.00000000
                                                     2        1.6931290       34.16802010    0.00000000
                                                     2        0.7670500       -6.55319560    0.00000000
    2         35            7
                                      F and up 
                                                     1      213.6143969      -28.00000000    0.00000000
                                                     2       41.0585380     -134.92688520    0.00000000
                                                     2        8.7086530      -41.92719130    0.00000000
                                                     2        2.6074661       -5.93364200    0.00000000
                                      S - F
                                                     0       54.1980682        3.00000000    0.00000000
                                                     1       32.9053558       27.34306420    0.00000000
                                                     2       13.6744890      118.80288470    0.00000000
                                                     2        3.0341152       43.43548760    0.00000000
                                      P - F
                                                     0       54.2563340        5.00000000    0.00000000
                                                     1       26.0095593       25.05042520    0.00000000
                                                     2       28.2012995       92.61574630    0.00000000
                                                     2        9.4341061       95.82490160    0.00000000
                                                     2        2.5321764       26.26849830    0.00000000
                                      D - F
                                                     0       87.6328721        3.00000000    0.00000000
                                                     1       61.7373377       22.55335570    0.00000000
                                                     2       32.4385104      178.12419880    0.00000000
                                                     2        8.7537199       76.99241620    0.00000000
                                                     2        1.6633189        9.48182700    0.00000000
    3         35            7
                                      F and up 
                                                     1      213.6143969      -28.00000000    0.00000000
                                                     2       41.0585380     -134.92688520    0.00000000
                                                     2        8.7086530      -41.92719130    0.00000000
                                                     2        2.6074661       -5.93364200    0.00000000
                                      S - F
                                                     0       54.1980682        3.00000000    0.00000000
                                                     1       32.9053558       27.34306420    0.00000000
                                                     2       13.6744890      118.80288470    0.00000000
                                                     2        3.0341152       43.43548760    0.00000000
                                      P - F
                                                     0       54.2563340        5.00000000    0.00000000
                                                     1       26.0095593       25.05042520    0.00000000
                                                     2       28.2012995       92.61574630    0.00000000
                                                     2        9.4341061       95.82490160    0.00000000
                                                     2        2.5321764       26.26849830    0.00000000
                                      D - F
                                                     0       87.6328721        3.00000000    0.00000000
                                                     1       61.7373377       22.55335570    0.00000000
                                                     2       32.4385104      178.12419880    0.00000000
                                                     2        8.7537199       76.99241620    0.00000000
                                                     2        1.6633189        9.48182700    0.00000000
    4          8
                                   No pseudopotential on this center.
    5         16
                                   No pseudopotential on this center.
    6          6
                                   No pseudopotential on this center.
    7          6
                                   No pseudopotential on this center.
    8          1
                                   No pseudopotential on this center.
    9          1
                                   No pseudopotential on this center.
   10          1
                                   No pseudopotential on this center.
   11          1
                                   No pseudopotential on this center.
   12          1
                                   No pseudopotential on this center.
   13          1
                                   No pseudopotential on this center.
   14          8
                                   No pseudopotential on this center.
   15         16
                                   No pseudopotential on this center.
   16          6
                                   No pseudopotential on this center.
   17          6
                                   No pseudopotential on this center.
   18          1
                                   No pseudopotential on this center.
   19          1
                                   No pseudopotential on this center.
   20          1
                                   No pseudopotential on this center.
   21          1
                                   No pseudopotential on this center.
   22          1
                                   No pseudopotential on this center.
   23          1
                                   No pseudopotential on this center.
   24          8
                                   No pseudopotential on this center.
   25         16
                                   No pseudopotential on this center.
   26          6
                                   No pseudopotential on this center.
   27          6
                                   No pseudopotential on this center.
   28          1
                                   No pseudopotential on this center.
   29          1
                                   No pseudopotential on this center.
   30          1
                                   No pseudopotential on this center.
   31          1
                                   No pseudopotential on this center.
   32          1
                                   No pseudopotential on this center.
   33          1
                                   No pseudopotential on this center.
   34          8
                                   No pseudopotential on this center.
   35         16
                                   No pseudopotential on this center.
   36          6
                                   No pseudopotential on this center.
   37          6
                                   No pseudopotential on this center.
   38          1
                                   No pseudopotential on this center.
   39          1
                                   No pseudopotential on this center.
   40          1
                                   No pseudopotential on this center.
   41          1
                                   No pseudopotential on this center.
   42          1
                                   No pseudopotential on this center.
   43          1
                                   No pseudopotential on this center.
 ======================================================================================================
 There are   960 symmetry adapted cartesian basis functions of A   symmetry.
 There are   856 symmetry adapted basis functions of A   symmetry.
   856 basis functions,  1444 primitive gaussians,   960 cartesian basis functions
    93 alpha electrons       93 beta electrons
       nuclear repulsion energy      2172.0068654610 Hartrees.
 NAtoms=   43 NActive=   43 NUniq=   43 SFac= 1.00D+00 NAtFMM=   60 NAOKFM=F Big=F
 Integral buffers will be    131072 words long.
 Raffenetti 1 integral format.
 Two-electron integral symmetry is turned on.
 Nuclear repulsion after empirical dispersion term =     2171.9447570602 Hartrees.
 ------------------------------------------------------------------------------
 Polarizable Continuum Model (PCM)
 =================================
 Model                : PCM.
 Atomic radii         : UFF (Universal Force Field).
 Polarization charges : Total charges.
 Charge compensation  : None.
 Solution method      : On-the-fly selection.
 Cavity type          : Scaled VdW (van der Waals Surface) (Alpha=1.100).
 Cavity algorithm     : GePol (No added spheres)
                        Default sphere list used, NSphG=   43.
                        Lebedev-Laikov grids with approx.  5.0 points / Ang**2.
                        Smoothing algorithm: York/Karplus (Gamma=1.0000).
                        Polarization charges: spherical gaussians, with
                                              point-specific exponents (IZeta= 3).
                        Self-potential: point-specific (ISelfS= 7).
                        Self-field    : sphere-specific E.n sum rule (ISelfD= 2).
 Solvent              : DiMethylSulfoxide, Eps=  46.826000 Eps(inf)=   2.007889
 ------------------------------------------------------------------------------
 One-electron integrals computed using PRISM.
   1 Symmetry operations used in ECPInt.
 ECPInt:  NShTT=   52650 NPrTT=  228617 LenC2=   43449 LenP2D=  115383.
 LDataN:  DoStor=T MaxTD1= 7 Len=  274
 NBasis=   856 RedAO= T EigKep=  1.17D-03  NBF=   856
 NBsUse=   856 1.00D-06 EigRej= -1.00D+00 NBFU=   856
 Defaulting to unpruned grid for atomic number  82.
 Initial guess from the checkpoint file:  "02-PbBr2_dmso.chk"
 B after Tr=     0.000000   -0.000000   -0.000000
         Rot=    1.000000   -0.000000   -0.000000    0.000000 Ang=   0.00 deg.
 Requested convergence on RMS density matrix=1.00D-08 within 128 cycles.
 Requested convergence on MAX density matrix=1.00D-06.
 Requested convergence on             energy=1.00D-06.
 No special actions if energy rises.
 Defaulting to unpruned grid for atomic number  82.
 Defaulting to unpruned grid for atomic number  82.
 Defaulting to unpruned grid for atomic number  82.
 Defaulting to unpruned grid for atomic number  82.
 Defaulting to unpruned grid for atomic number  82.
 Defaulting to unpruned grid for atomic number  82.
 Defaulting to unpruned grid for atomic number  82.
 Inv3:  Mode=1 IEnd=    37319187.
 Iteration    1 A*A^-1 deviation from unit magnitude is 3.22D-15 for    555.
 Iteration    1 A*A^-1 deviation from orthogonality  is 2.33D-15 for   2181    372.
 Iteration    1 A^-1*A deviation from unit magnitude is 3.22D-15 for   1963.
 Iteration    1 A^-1*A deviation from orthogonality  is 3.39D-15 for   2259   2226.
 Error on total polarization charges =  0.02061
 SCF Done:  E(RCAM-B3LYP) =  -2242.89904703     A.U. after   12 cycles
            NFock= 12  Conv=0.47D-08     -V/T= 2.0136
 DoSCS=F DFT=T ScalE2(SS,OS)=  1.000000  1.000000
 ExpMin= 5.98D-02 ExpMax= 3.74D+05 ExpMxC= 1.18D+03 IAcc=3 IRadAn=         5 AccDes= 0.00D+00
 HarFok:  IExCor=  205 AccDes= 0.00D+00 IRadAn=         5 IDoV=-2 UseB2=F ITyADJ=14
 ICtDFT= 12500011 ScaDFX=  1.000000  1.000000  1.000000  1.000000
 Defaulting to unpruned grid for atomic number  82.
 GSVD:  LWork=       -1280 too small for GESVD, short by        5600 words or        5600 for optimal perf.
 Range of M.O.s used for correlation:    33   856
 NBasis=   856 NAE=    93 NBE=    93 NFC=    32 NFV=     0
 NROrb=    824 NOA=    61 NOB=    61 NVA=   763 NVB=   763
 NEqPCM:  Using non-equilibrium solvation (IEInf=1, Eps=  46.8260, EpsInf=   2.0079)
 Inv3:  Mode=1 IEnd=    37319187.
 Iteration    1 A*A^-1 deviation from unit magnitude is 3.89D-15 for   3034.
 Iteration    1 A*A^-1 deviation from orthogonality  is 2.00D-15 for   1974    504.
 Iteration    1 A^-1*A deviation from unit magnitude is 4.00D-15 for   1503.
 Iteration    1 A^-1*A deviation from orthogonality  is 2.78D-15 for   2132    973.
 Orbital symmetries:
       Occupied  (A) (A) (A) (A) (A) (A) (A) (A) (A) (A) (A) (A)
                 (A) (A) (A) (A) (A) (A) (A) (A) (A) (A) (A) (A)
                 (A) (A) (A) (A) (A) (A) (A) (A) (A) (A) (A) (A)
                 (A) (A) (A) (A) (A) (A) (A) (A) (A) (A) (A) (A)
                 (A) (A) (A) (A) (A) (A) (A) (A) (A) (A) (A) (A)
                 (A) (A) (A) (A) (A) (A) (A) (A) (A) (A) (A) (A)
                 (A) (A) (A) (A) (A) (A) (A) (A) (A) (A) (A) (A)
                 (A) (A) (A) (A) (A) (A) (A) (A) (A)
       Virtual   (A) (A) (A) (A) (A) (A) (A) (A) (A) (A) (A) (A)
                 (A) (A) (A) (A) (A) (A) (A) (A) (A) (A) (A) (A)
                 (A) (A) (A) (A) (A) (A) (A) (A) (A) (A) (A) (A)
                 (A) (A) (A) (A) (A) (A) (A) (A) (A) (A) (A) (A)
                 (A) (A) (A) (A) (A) (A) (A) (A) (A) (A) (A) (A)
                 (A) (A) (A) (A) (A) (A) (A) (A) (A) (A) (A) (A)
                 (A) (A) (A) (A) (A) (A) (A) (A) (A) (A) (A) (A)
                 (A) (A) (A) (A) (A) (A) (A) (A) (A) (A) (A) (A)
                 (A) (A) (A) (A) (A) (A) (A) (A) (A) (A) (A) (A)
                 (A) (A) (A) (A) (A) (A) (A) (A) (A) (A) (A) (A)
                 (A) (A) (A) (A) (A) (A) (A) (A) (A) (A) (A) (A)
                 (A) (A) (A) (A) (A) (A) (A) (A) (A) (A) (A) (A)
                 (A) (A) (A) (A) (A) (A) (A) (A) (A) (A) (A) (A)
                 (A) (A) (A) (A) (A) (A) (A) (A) (A) (A) (A) (A)
                 (A) (A) (A) (A) (A) (A) (A) (A) (A) (A) (A) (A)
                 (A) (A) (A) (A) (A) (A) (A) (A) (A) (A) (A) (A)
                 (A) (A) (A) (A) (A) (A) (A) (A) (A) (A) (A) (A)
                 (A) (A) (A) (A) (A) (A) (A) (A) (A) (A) (A) (A)
                 (A) (A) (A) (A) (A) (A) (A) (A) (A) (A) (A) (A)
                 (A) (A) (A) (A) (A) (A) (A) (A) (A) (A) (A) (A)
                 (A) (A) (A) (A) (A) (A) (A) (A) (A) (A) (A) (A)
                 (A) (A) (A) (A) (A) (A) (A) (A) (A) (A) (A) (A)
                 (A) (A) (A) (A) (A) (A) (A) (A) (A) (A) (A) (A)
                 (A) (A) (A) (A) (A) (A) (A) (A) (A) (A) (A) (A)
                 (A) (A) (A) (A) (A) (A) (A) (A) (A) (A) (A) (A)
                 (A) (A) (A) (A) (A) (A) (A) (A) (A) (A) (A) (A)
                 (A) (A) (A) (A) (A) (A) (A) (A) (A) (A) (A) (A)
                 (A) (A) (A) (A) (A) (A) (A) (A) (A) (A) (A) (A)
                 (A) (A) (A) (A) (A) (A) (A) (A) (A) (A) (A) (A)
                 (A) (A) (A) (A) (A) (A) (A) (A) (A) (A) (A) (A)
                 (A) (A) (A) (A) (A) (A) (A) (A) (A) (A) (A) (A)
                 (A) (A) (A) (A) (A) (A) (A) (A) (A) (A) (A) (A)
                 (A) (A) (A) (A) (A) (A) (A) (A) (A) (A) (A) (A)
                 (A) (A) (A) (A) (A) (A) (A) (A) (A) (A) (A) (A)
                 (A) (A) (A) (A) (A) (A) (A) (A) (A) (A) (A) (A)
                 (A) (A) (A) (A) (A) (A) (A) (A) (A) (A) (A) (A)
                 (A) (A) (A) (A) (A) (A) (A) (A) (A) (A) (A) (A)
                 (A) (A) (A) (A) (A) (A) (A) (A) (A) (A) (A) (A)
                 (A) (A) (A) (A) (A) (A) (A) (A) (A) (A) (A) (A)
                 (A) (A) (A) (A) (A) (A) (A) (A) (A) (A) (A) (A)
                 (A) (A) (A) (A) (A) (A) (A) (A) (A) (A) (A) (A)
                 (A) (A) (A) (A) (A) (A) (A) (A) (A) (A) (A) (A)
                 (A) (A) (A) (A) (A) (A) (A) (A) (A) (A) (A) (A)
                 (A) (A) (A) (A) (A) (A) (A) (A) (A) (A) (A) (A)
                 (A) (A) (A) (A) (A) (A) (A) (A) (A) (A) (A) (A)
                 (A) (A) (A) (A) (A) (A) (A) (A) (A) (A) (A) (A)
                 (A) (A) (A) (A) (A) (A) (A) (A) (A) (A) (A) (A)
                 (A) (A) (A) (A) (A) (A) (A) (A) (A) (A) (A) (A)
                 (A) (A) (A) (A) (A) (A) (A) (A) (A) (A) (A) (A)
                 (A) (A) (A) (A) (A) (A) (A) (A) (A) (A) (A) (A)
                 (A) (A) (A) (A) (A) (A) (A) (A) (A) (A) (A) (A)
                 (A) (A) (A) (A) (A) (A) (A) (A) (A) (A) (A) (A)
                 (A) (A) (A) (A) (A) (A) (A) (A) (A) (A) (A) (A)
                 (A) (A) (A) (A) (A) (A) (A) (A) (A) (A) (A) (A)
                 (A) (A) (A) (A) (A) (A) (A) (A) (A) (A) (A) (A)
                 (A) (A) (A) (A) (A) (A) (A) (A) (A) (A) (A) (A)
                 (A) (A) (A) (A) (A) (A) (A) (A) (A) (A) (A) (A)
                 (A) (A) (A) (A) (A) (A) (A) (A) (A) (A) (A) (A)
                 (A) (A) (A) (A) (A) (A) (A) (A) (A) (A) (A) (A)
                 (A) (A) (A) (A) (A) (A) (A) (A) (A) (A) (A) (A)
                 (A) (A) (A) (A) (A) (A) (A) (A) (A) (A) (A) (A)
                 (A) (A) (A) (A) (A) (A) (A) (A) (A) (A) (A) (A)
                 (A) (A) (A) (A) (A) (A) (A) (A) (A) (A) (A) (A)
                 (A) (A) (A) (A) (A) (A) (A)
    40 initial guesses have been made.
 Convergence on wavefunction:    0.001000000000000
 Iteration     1 Dimension    40 NMult     0 NNew     40
 CISAX will form    40 AO SS matrices at one time.
 Defaulting to unpruned grid for atomic number  82.
 Defaulting to unpruned grid for atomic number  82.
 Defaulting to unpruned grid for atomic number  82.
 Defaulting to unpruned grid for atomic number  82.
 Defaulting to unpruned grid for atomic number  82.
 Defaulting to unpruned grid for atomic number  82.
 Defaulting to unpruned grid for atomic number  82.
 New state      6 was old state      7
 New state      7 was old state      6
 New state      8 was old state     10
 New state      9 was old state     12
 New state     10 was old state     13
 Iteration     2 Dimension    60 NMult    40 NNew     20
 New state      7 was old state      8
 New state      8 was old state      7
 Iteration     3 Dimension    80 NMult    60 NNew     20
 Iteration     4 Dimension   100 NMult    80 NNew     20
 New state      7 was old state      8
 New state      8 was old state      7
 Iteration     5 Dimension   120 NMult   100 NNew     20
 New state      6 was old state      7
 New state      7 was old state      6
 Iteration     6 Dimension   140 NMult   120 NNew     20
 Iteration     7 Dimension   158 NMult   140 NNew     18
 Iteration     8 Dimension   172 NMult   158 NNew     14
 Iteration     9 Dimension   182 NMult   172 NNew     10
 Iteration    10 Dimension   186 NMult   182 NNew      4
 Iteration    11 Dimension   188 NMult   186 NNew      2
 ***********************************************************************
 Excited states from <AA,BB:AA,BB> singles matrix:
 ***********************************************************************
 
 Ground to excited state transition densities written to RWF  633
 Ground to excited state transition electric dipole moments (Au):
       state          X           Y           Z        Dip. S.      Osc.
         1         0.2453      0.2339     -0.7335      0.6529      0.0839
         2        -1.3393      0.1300     -0.2332      1.8651      0.2534
         3         0.2402     -1.4229     -0.1098      2.0945      0.2890
         4        -0.2675      0.3855      0.0871      0.2278      0.0330
         5         0.2843     -0.6387     -0.1702      0.5178      0.0758
         6        -0.4870     -0.0409     -0.0248      0.2395      0.0353
         7         0.2791      0.0752      0.0388      0.0851      0.0127
         8         0.1700     -0.3305     -0.0128      0.1383      0.0212
         9         0.1251     -0.1519     -0.0137      0.0389      0.0060
        10         0.1294      0.2920      0.1388      0.1213      0.0189
 Ground to excited state transition velocity dipole moments (Au):
       state          X           Y           Z        Dip. S.      Osc.
         1        -0.0504     -0.0432      0.1159      0.0178      0.0617
         2         0.2284     -0.0236      0.0368      0.0541      0.1770
         3        -0.0302      0.2525      0.0101      0.0648      0.2087
         4         0.0636     -0.0749     -0.0074      0.0097      0.0297
         5        -0.0402      0.1059      0.0290      0.0137      0.0416
         6         0.0948      0.0164     -0.0036      0.0093      0.0279
         7        -0.0550     -0.0222     -0.0174      0.0038      0.0114
         8        -0.0358      0.0750      0.0004      0.0069      0.0201
         9        -0.0185      0.0098     -0.0065      0.0005      0.0014
        10        -0.0498     -0.0650     -0.0442      0.0087      0.0247
 Ground to excited state transition magnetic dipole moments (Au):
       state          X           Y           Z
         1        -0.0138     -0.4562     -0.3937
         2         0.5831      0.2649     -0.5401
         3        -0.8044      0.2627      0.7177
         4        -0.1815      0.4000      0.5665
         5         0.3607      0.0858     -0.7632
         6        -0.6525     -0.9960      0.1819
         7         0.3115      0.0200     -0.2760
         8         0.2887      0.2741     -0.3474
         9         0.0891      0.0324      0.1298
        10        -0.2062     -0.1882     -0.0084
 Ground to excited state transition velocity quadrupole moments (Au):
       state          XX          YY          ZZ          XY          XZ          YZ
         1         0.1688      0.3062      0.0700     -0.1349     -0.1853     -0.2081
         2         0.2038      0.3090      0.0347     -0.1858      0.1302     -0.1608
         3         0.1417      0.3801     -0.1273     -0.1376      0.0990     -0.0398
         4        -0.0740     -0.0886     -0.0758     -0.1873      0.2751      0.2345
         5         0.4571     -0.3685     -0.0124      0.2029      0.0241     -0.3544
         6         0.3975      0.1326      0.0029      0.4388     -0.1539      0.0309
         7         0.4040      0.1730      0.2154     -0.1592      0.1420      0.0001
         8        -0.2268      0.3039     -0.0371      0.0464     -0.0578     -0.0289
         9         0.1645     -0.1708      0.1563      0.4118     -0.1381     -0.0626
        10        -0.2620     -0.2998      0.3782      0.3156      0.2062      0.1658
 <0|del|b> * <b|rxdel|0> + <0|del|b> * <b|delr+rdel|0>
 Rotatory Strengths (R) in cgs (10**-40 erg-esu-cm/Gauss)
       state          XX          YY          ZZ    R(velocity)    E-M Angle
         1       -90.8644    -34.4773     32.8640    -30.8259      108.25
         2       -51.8530    144.7603    278.6916    123.8663       56.66
         3        80.6271     58.3213    195.5239    111.4908       69.72
         4       -19.7521     -3.5931   -125.1303    -49.4918      130.31
         5       -15.6640    -45.5693    -27.5436    -29.5923      106.12
         6       -25.6906    -92.6483   -133.6485    -83.9958      132.85
         7        16.2893    -23.8905    -32.7763    -13.4592      119.70
         8        38.1743    -14.5775      7.4648     10.3539       76.73
         9        -2.8261      2.0550     -5.8513     -2.2075      128.08
        10        18.2286     24.7099     26.2395     23.0593       28.36
 1/2[<0|r|b>*<b|rxdel|0> + (<0|rxdel|b>*<b|r|0>)*]
 Rotatory Strengths (R) in cgs (10**-40 erg-esu-cm/Gauss)
       state          XX          YY          ZZ     R(length)
         1         2.3961     75.4497   -204.2315    -42.1286
         2       552.2662    -24.3609    -89.0738    146.2772
         3       136.6413    264.3486     55.7213    152.2371
         4       -34.3452   -109.0461    -34.8865    -59.4259
         5       -72.5117     38.7620    -91.8775    -41.8757
         6      -224.7204    -28.8130      3.1967    -83.4456
         7       -61.4935     -1.0619      7.5780    -18.3258
         8       -34.6923     64.0727     -3.1393      8.7471
         9        -7.8776      3.4843      1.2593     -1.0447
        10        18.8705     38.8627      0.8278     19.5203
  1/2[<0|del|b>*<b|r|0> + (<0|r|b>*<b|del|0>)*] (Au)
       state          X           Y           Z        Dip. S.   Osc.(frdel)
         1        -0.0124     -0.0101     -0.0850      0.1075      0.0716
         2        -0.3059     -0.0031     -0.0086      0.3176      0.2117
         3        -0.0073     -0.3594     -0.0011      0.3677      0.2451
         4        -0.0170     -0.0289     -0.0006      0.0465      0.0310
         5        -0.0114     -0.0677     -0.0049      0.0840      0.0560
         6        -0.0462     -0.0007      0.0001      0.0467      0.0312
         7        -0.0153     -0.0017     -0.0007      0.0177      0.0118
         8        -0.0061     -0.0248     -0.0000      0.0309      0.0206
         9        -0.0023     -0.0015      0.0001      0.0037      0.0025
        10        -0.0064     -0.0190     -0.0061      0.0315      0.0210

 Excitation energies and oscillator strengths:
 
 Excited State   1:      Singlet-A      5.2455 eV  236.36 nm  f=0.0839  <S**2>=0.000
      93 -> 94         0.65783
 This state for optimization and/or second-order correction.
 Total Energy, E(TD-HF/TD-DFT) =  -2242.70627980    
 Copying the excited state density for this state as the 1-particle RhoCI density.
 
 Excited State   2:      Singlet-A      5.5451 eV  223.59 nm  f=0.2534  <S**2>=0.000
      84 -> 94         0.11288
      84 -> 95         0.16527
      85 -> 95         0.12625
      93 -> 95         0.59533
 
 Excited State   3:      Singlet-A      5.6320 eV  220.14 nm  f=0.2890  <S**2>=0.000
      85 -> 96         0.16090
      86 -> 94         0.19107
      91 -> 94         0.11204
      92 -> 94        -0.11699
      93 -> 96         0.52024
 
 Excited State   4:      Singlet-A      5.9192 eV  209.46 nm  f=0.0330  <S**2>=0.000
      84 -> 94         0.10725
      86 -> 94         0.22820
      87 -> 94         0.13125
      87 -> 95        -0.16220
      87 -> 97        -0.17547
      87 -> 98        -0.10991
      87 -> 99         0.12071
      87 ->101        -0.18628
      90 -> 94        -0.13665
      91 -> 94         0.19003
      93 -> 96        -0.18367
      93 -> 97        -0.17198
      93 -> 99         0.13349
 
 Excited State   5:      Singlet-A      5.9725 eV  207.59 nm  f=0.0758  <S**2>=0.000
      84 -> 94         0.11057
      86 -> 94        -0.13867
      86 -> 96        -0.13499
      88 -> 94        -0.18697
      88 -> 96        -0.11048
      91 -> 94        -0.17057
      92 -> 94         0.18631
      93 -> 95        -0.11892
      93 -> 96         0.36538
      93 ->103         0.12071
 
 Excited State   6:      Singlet-A      6.0209 eV  205.92 nm  f=0.0353  <S**2>=0.000
      84 -> 95        -0.11589
      86 -> 97        -0.10479
      87 -> 94         0.33354
      87 -> 95        -0.16120
      87 -> 96        -0.13621
      87 -> 97        -0.10028
      87 ->101        -0.15828
      88 -> 94         0.10791
      91 -> 94        -0.19189
      92 -> 94        -0.13639
      93 -> 95         0.22176
 
 Excited State   7:      Singlet-A      6.0818 eV  203.86 nm  f=0.0127  <S**2>=0.000
      84 -> 95         0.20129
      85 -> 94         0.20613
      86 -> 96         0.11567
      88 -> 95        -0.21038
      89 -> 94         0.25449
      90 -> 94         0.13469
      92 -> 94         0.11095
      92 -> 95         0.21213
      93 -> 94        -0.16755
      93 -> 95        -0.15856
 
 Excited State   8:      Singlet-A      6.2454 eV  198.52 nm  f=0.0212  <S**2>=0.000
      88 -> 94         0.13836
      92 -> 94         0.60906
 
 Excited State   9:      Singlet-A      6.3214 eV  196.13 nm  f=0.0060  <S**2>=0.000
      90 -> 94         0.43548
      91 -> 94         0.44622
      92 -> 95        -0.14278
 
 Excited State  10:      Singlet-A      6.3597 eV  194.95 nm  f=0.0189  <S**2>=0.000
      89 -> 94         0.51725
      92 -> 95        -0.29970
      92 -> 96         0.23366
      92 ->103         0.11255
 SavETr:  write IOETrn=   770 NScale= 10 NData=  16 NLR=1 NState=   10 LETran=     190.

 **********************************************************************

            Population analysis using the SCF Density.

 **********************************************************************

 Orbital symmetries:
       Occupied  (A) (A) (A) (A) (A) (A) (A) (A) (A) (A) (A) (A)
                 (A) (A) (A) (A) (A) (A) (A) (A) (A) (A) (A) (A)
                 (A) (A) (A) (A) (A) (A) (A) (A) (A) (A) (A) (A)
                 (A) (A) (A) (A) (A) (A) (A) (A) (A) (A) (A) (A)
                 (A) (A) (A) (A) (A) (A) (A) (A) (A) (A) (A) (A)
                 (A) (A) (A) (A) (A) (A) (A) (A) (A) (A) (A) (A)
                 (A) (A) (A) (A) (A) (A) (A) (A) (A) (A) (A) (A)
                 (A) (A) (A) (A) (A) (A) (A) (A) (A)
       Virtual   (A) (A) (A) (A) (A) (A) (A) (A) (A) (A) (A) (A)
                 (A) (A) (A) (A) (A) (A) (A) (A) (A) (A) (A) (A)
                 (A) (A) (A) (A) (A) (A) (A) (A) (A) (A) (A) (A)
                 (A) (A) (A) (A) (A) (A) (A) (A) (A) (A) (A) (A)
                 (A) (A) (A) (A) (A) (A) (A) (A) (A) (A) (A) (A)
                 (A) (A) (A) (A) (A) (A) (A) (A) (A) (A) (A) (A)
                 (A) (A) (A) (A) (A) (A) (A) (A) (A) (A) (A) (A)
                 (A) (A) (A) (A) (A) (A) (A) (A) (A) (A) (A) (A)
                 (A) (A) (A) (A) (A) (A) (A) (A) (A) (A) (A) (A)
                 (A) (A) (A) (A) (A) (A) (A) (A) (A) (A) (A) (A)
                 (A) (A) (A) (A) (A) (A) (A) (A) (A) (A) (A) (A)
                 (A) (A) (A) (A) (A) (A) (A) (A) (A) (A) (A) (A)
                 (A) (A) (A) (A) (A) (A) (A) (A) (A) (A) (A) (A)
                 (A) (A) (A) (A) (A) (A) (A) (A) (A) (A) (A) (A)
                 (A) (A) (A) (A) (A) (A) (A) (A) (A) (A) (A) (A)
                 (A) (A) (A) (A) (A) (A) (A) (A) (A) (A) (A) (A)
                 (A) (A) (A) (A) (A) (A) (A) (A) (A) (A) (A) (A)
[...]
    10  H    0.000000   0.000000   0.000000   0.000000   0.000000   0.000002
    11  H    0.000000   0.000000   0.000000   0.000000   0.000000   0.000618
    12  H   -0.000000   0.000000   0.000000  -0.000000  -0.000000  -0.000011
    13  H   -0.000000   0.000000   0.000000   0.000001   0.000001  -0.001147
    14  O   -0.001108   0.002231   0.002469   0.001502   0.002685  -0.003812
    15  S   -0.020394  -0.012440  -0.008370  -0.028312  -0.029482  -0.000681
    16  C    0.003425   0.377673  -0.001136   0.351755  -0.008202  -0.000038
    17  C    0.386895  -0.000974   0.380772  -0.009639   0.341555   0.001272
    18  H   -0.000164  -0.019644  -0.000228  -0.027737   0.000129  -0.000004
    19  H    0.539851  -0.000119  -0.022682   0.000393  -0.025517  -0.001303
    20  H   -0.000119   0.529042  -0.000114  -0.018054   0.000598  -0.000000
    21  H   -0.022682  -0.000114   0.528956   0.000319  -0.018805   0.000005
    22  H    0.000393  -0.018054   0.000319   0.583375   0.004769  -0.000017
    23  H   -0.025517   0.000598  -0.018805   0.004769   0.587057   0.000221
    24  O   -0.001303  -0.000000   0.000005  -0.000017   0.000221   8.364847
    25  S    0.012328   0.000002   0.000224   0.000056  -0.000591   0.361247
    26  C   -0.000784   0.000001   0.000004   0.000003   0.000058  -0.036483
    27  C   -0.000227  -0.000000   0.000009   0.000001  -0.000024  -0.032958
    28  H   -0.000066  -0.000005  -0.000030  -0.000036  -0.000076  -0.001487
    29  H   -0.000051  -0.000000  -0.000000   0.000000   0.000007   0.003754
    30  H    0.000141   0.000000   0.000002   0.000001  -0.000002   0.002636
    31  H    0.000081   0.000000  -0.000000   0.000000  -0.000002   0.002889
    32  H    0.000033  -0.000000   0.000000  -0.000000  -0.000000  -0.000195
    33  H    0.000028   0.000000  -0.000000   0.000000   0.000000  -0.000099
    34  O   -0.000001   0.000638  -0.000001   0.002270  -0.000079   0.000075
    35  S   -0.000000   0.000017  -0.000000  -0.000679   0.000013  -0.000010
    36  C   -0.000000  -0.000002   0.000000  -0.000433   0.000013   0.000001
    37  C   -0.000000   0.000002   0.000000  -0.000008   0.000000   0.000001
    38  H    0.000000   0.000008  -0.000000   0.001370  -0.000053   0.000000
    39  H    0.000000  -0.000000  -0.000000  -0.000006  -0.000000  -0.000000
    40  H    0.000000   0.000000  -0.000000   0.000022  -0.000000   0.000000
    41  H   -0.000000  -0.000000   0.000000  -0.000001   0.000000   0.000000
    42  H   -0.000000  -0.000001   0.000000  -0.000133  -0.000001   0.000008
    43  H   -0.000000  -0.000000   0.000000  -0.000004   0.000002   0.000006
              25         26         27         28         29         30
     1  Pb  -0.027307   0.003313  -0.000781  -0.006522   0.000281  -0.000282
     2  Br   0.000062   0.000001   0.000001   0.000016  -0.000000   0.000000
     3  Br  -0.000206   0.000005  -0.000003   0.000004  -0.000001   0.000000
     4  O   -0.000118  -0.001886  -0.000008   0.014787   0.000001   0.000284
     5  S    0.000127  -0.001036   0.000035  -0.003866   0.000003   0.000106
     6  C    0.000014   0.000031  -0.000000   0.000180   0.000000   0.000002
     7  C    0.005152  -0.001445   0.000016   0.001051   0.000012  -0.000046
     8  H    0.000000  -0.000005   0.000000   0.000004   0.000000  -0.000000
     9  H   -0.010971  -0.000611  -0.001688  -0.000352  -0.000083   0.000165
    10  H    0.000000  -0.000004   0.000000  -0.000009  -0.000000  -0.000000
    11  H   -0.000128   0.000190   0.000024  -0.000119  -0.000003   0.000008
    12  H   -0.000000   0.000003  -0.000000  -0.000041   0.000000   0.000000
    13  H    0.000081  -0.000032   0.000000  -0.000055   0.000000  -0.000002
    14  O    0.009770  -0.011075   0.000838   0.016965  -0.000000  -0.000367
    15  S    0.000762  -0.000783  -0.000053  -0.001358   0.000001   0.000173
    16  C    0.000217   0.000025   0.000001  -0.000003   0.000000  -0.000003
    17  C   -0.013482   0.000105   0.000242   0.000617   0.000015  -0.000051
    18  H   -0.000029  -0.000012  -0.000000   0.000039   0.000000  -0.000001
    19  H    0.012328  -0.000784  -0.000227  -0.000066  -0.000051   0.000141
    20  H    0.000002   0.000001  -0.000000  -0.000005  -0.000000   0.000000
    21  H    0.000224   0.000004   0.000009  -0.000030  -0.000000   0.000002
    22  H    0.000056   0.000003   0.000001  -0.000036   0.000000   0.000001
    23  H   -0.000591   0.000058  -0.000024  -0.000076   0.000007  -0.000002
    24  O    0.361247  -0.036483  -0.032958  -0.001487   0.003754   0.002636
    25  S   14.705006   0.246159   0.257703  -0.021161  -0.021843  -0.009274
    26  C    0.246159   5.012623  -0.036288   0.373199   0.004793   0.379617
    27  C    0.257703  -0.036288   4.929610   0.002946   0.388607   0.000363
    28  H   -0.021161   0.373199   0.002946   0.528798  -0.000150  -0.017548
    29  H   -0.021843   0.004793   0.388607  -0.000150   0.538176  -0.000321
    30  H   -0.009274   0.379617   0.000363  -0.017548  -0.000321   0.524414
    31  H   -0.015557   0.001329   0.375339  -0.000084  -0.018021  -0.001369
    32  H   -0.026046   0.397018  -0.005318  -0.028589   0.000045  -0.023404
    33  H   -0.021725  -0.008327   0.399819  -0.000081  -0.026506   0.001071
    34  O    0.000055  -0.000015   0.000000   0.000029  -0.000000  -0.000001
    35  S   -0.000007  -0.000002  -0.000000   0.000016   0.000000  -0.000000
    36  C    0.000000  -0.000000   0.000000   0.000000   0.000000  -0.000000
    37  C    0.000001   0.000000   0.000000  -0.000002   0.000000  -0.000000
    38  H    0.000000  -0.000000   0.000000  -0.000000  -0.000000   0.000000
    39  H   -0.000000  -0.000002  -0.000000   0.000011  -0.000000  -0.000000
    40  H    0.000000   0.000000   0.000000   0.000000   0.000000  -0.000000
    41  H    0.000000   0.000000   0.000000  -0.000000   0.000000  -0.000000
    42  H    0.000001   0.000000   0.000000   0.000000  -0.000000   0.000000
    43  H    0.000001   0.000002   0.000000  -0.000009   0.000000  -0.000000
              31         32         33         34         35         36
     1  Pb  -0.000031   0.000298  -0.000209  -0.010409  -0.010861  -0.012459
     2  Br  -0.000000  -0.000003   0.000001  -0.000329   0.002244  -0.030839
     3  Br  -0.000000   0.000000   0.000000  -0.001305  -0.001532  -0.004107
     4  O    0.000001  -0.002729   0.000008  -0.000793  -0.001173  -0.000047
     5  S   -0.000000   0.002687  -0.000076   0.000490   0.000180   0.000015
     6  C   -0.000000  -0.000119  -0.000000  -0.000178   0.000141  -0.000039
     7  C   -0.000069  -0.002182  -0.000772  -0.000042   0.000006  -0.000012
     8  H   -0.000000  -0.000003  -0.000000  -0.000015  -0.000021  -0.000001
     9  H    0.000345   0.002709   0.002485  -0.000004  -0.000000  -0.000000
    10  H   -0.000000   0.000014  -0.000000  -0.000003  -0.000002  -0.000000
    11  H   -0.000001   0.000126   0.000093  -0.000000  -0.000000   0.000000
    12  H    0.000000   0.000011  -0.000000  -0.000083   0.000157   0.000067
    13  H   -0.000001   0.000057  -0.000014   0.000002  -0.000033   0.000061
    14  O    0.000003   0.000655  -0.000016  -0.003647   0.000367  -0.000024
    15  S    0.000014   0.000047   0.000001   0.000646   0.000192   0.000016
    16  C    0.000000   0.000002  -0.000000  -0.008349  -0.000139   0.000016
    17  C   -0.000037  -0.000022  -0.000011  -0.000048  -0.000002  -0.000002
    18  H    0.000000   0.000000  -0.000000   0.011321  -0.001185   0.000399
    19  H    0.000081   0.000033   0.000028  -0.000001  -0.000000  -0.000000
    20  H    0.000000  -0.000000   0.000000   0.000638   0.000017  -0.000002
    21  H   -0.000000   0.000000  -0.000000  -0.000001  -0.000000   0.000000
    22  H    0.000000  -0.000000   0.000000   0.002270  -0.000679  -0.000433
    23  H   -0.000002  -0.000000   0.000000  -0.000079   0.000013   0.000013
    24  O    0.002889  -0.000195  -0.000099   0.000075  -0.000010   0.000001
    25  S   -0.015557  -0.026046  -0.021725   0.000055  -0.000007   0.000000
    26  C    0.001329   0.397018  -0.008327  -0.000015  -0.000002  -0.000000
    27  C    0.375339  -0.005318   0.399819   0.000000  -0.000000   0.000000
    28  H   -0.000084  -0.028589  -0.000081   0.000029   0.000016   0.000000
    29  H   -0.018021   0.000045  -0.026506  -0.000000   0.000000   0.000000
    30  H   -0.001369  -0.023404   0.001071  -0.000001  -0.000000  -0.000000
    31  H    0.552129   0.000436  -0.024638  -0.000000   0.000000  -0.000000
    32  H    0.000436   0.552936   0.003776  -0.000001  -0.000000  -0.000000
    33  H   -0.024638   0.003776   0.546187   0.000000  -0.000000   0.000000
    34  O   -0.000000  -0.000001   0.000000   8.381504   0.358840  -0.033259
    35  S    0.000000  -0.000000  -0.000000   0.358840  14.672315   0.265351
    36  C   -0.000000  -0.000000   0.000000  -0.033259   0.265351   5.042656
    37  C   -0.000000   0.000000  -0.000000  -0.036386   0.273542  -0.036088
    38  H    0.000000  -0.000000  -0.000000   0.001616  -0.021905   0.371434
    39  H    0.000000   0.000000   0.000000   0.002957  -0.019136   0.004861
    40  H   -0.000000  -0.000000   0.000000   0.002628  -0.009223   0.373178
    41  H   -0.000000   0.000000  -0.000000   0.002620  -0.013936  -0.000088
    42  H   -0.000000  -0.000000  -0.000000  -0.000484  -0.024175   0.345603
    43  H   -0.000000   0.000000  -0.000000   0.003940  -0.032458  -0.010867
              37         38         39         40         41         42
     1  Pb  -0.007025   0.003415   0.001261   0.000457  -0.000269  -0.002100
     2  Br  -0.027390   0.000013   0.000104  -0.000112   0.000001   0.058875
     3  Br   0.000014   0.014628   0.000001   0.000174   0.000001   0.000662
     4  O    0.003255  -0.000006   0.002894  -0.000001   0.000166  -0.000046
     5  S   -0.000508  -0.000001   0.000499  -0.000000  -0.000023   0.000004
     6  C    0.002236   0.000000  -0.000717   0.000001  -0.000003   0.000053
     7  C   -0.000066   0.000000   0.000085   0.000000  -0.000001   0.000066
     8  H   -0.000604  -0.000000   0.000535   0.000001   0.000030  -0.000006
     9  H   -0.000005   0.000000   0.000004   0.000000  -0.000000   0.000001
    10  H    0.000029   0.000000   0.000050  -0.000000   0.000005  -0.000002
    11  H   -0.000000   0.000000  -0.000005   0.000000  -0.000000  -0.000000
    12  H   -0.005298   0.000003   0.000005  -0.000006   0.000182  -0.000194
    13  H    0.000188  -0.000001  -0.000017   0.000000   0.000002  -0.000204
    14  O   -0.000033  -0.000006   0.000001  -0.000000   0.000000   0.000008
    15  S   -0.000011   0.000010   0.000008   0.000000  -0.000000  -0.000008
    16  C    0.000069  -0.000709  -0.000023   0.000012   0.000002   0.000051
    17  C   -0.000000   0.000014   0.000000   0.000000  -0.000000   0.000002
    18  H   -0.000049  -0.000014   0.000056  -0.000039  -0.000007  -0.000012
    19  H   -0.000000   0.000000   0.000000   0.000000  -0.000000  -0.000000
    20  H    0.000002   0.000008  -0.000000   0.000000  -0.000000  -0.000001
    21  H    0.000000  -0.000000  -0.000000  -0.000000   0.000000   0.000000
    22  H   -0.000008   0.001370  -0.000006   0.000022  -0.000001  -0.000133
    23  H    0.000000  -0.000053  -0.000000  -0.000000   0.000000  -0.000001
    24  O    0.000001   0.000000  -0.000000   0.000000   0.000000   0.000008
    25  S    0.000001   0.000000  -0.000000   0.000000   0.000000   0.000001
    26  C    0.000000  -0.000000  -0.000002   0.000000   0.000000   0.000000
    27  C    0.000000   0.000000  -0.000000   0.000000   0.000000   0.000000
    28  H   -0.000002  -0.000000   0.000011   0.000000  -0.000000   0.000000
    29  H    0.000000  -0.000000  -0.000000   0.000000   0.000000  -0.000000
    30  H   -0.000000   0.000000  -0.000000  -0.000000  -0.000000   0.000000
    31  H   -0.000000   0.000000   0.000000  -0.000000  -0.000000  -0.000000
    32  H    0.000000  -0.000000   0.000000  -0.000000   0.000000  -0.000000
    33  H   -0.000000  -0.000000   0.000000   0.000000  -0.000000  -0.000000
    34  O   -0.036386   0.001616   0.002957   0.002628   0.002620  -0.000484
    35  S    0.273542  -0.021905  -0.019136  -0.009223  -0.013936  -0.024175
    36  C   -0.036088   0.371434   0.004861   0.373178  -0.000088   0.345603
    37  C    4.995405   0.003979   0.378620   0.000230   0.372310  -0.013322
    38  H    0.003979   0.551407  -0.000139  -0.017487  -0.000394  -0.027669
    39  H    0.378620  -0.000139   0.552332  -0.000406  -0.018891   0.000283
    40  H    0.000230  -0.017487  -0.000406   0.540310  -0.000879  -0.025208
    41  H    0.372310  -0.000394  -0.018891  -0.000879   0.543499   0.001107
    42  H   -0.013322  -0.027669   0.000283  -0.025208   0.001107   0.596227
    43  H    0.356641  -0.000308  -0.032643   0.001150  -0.021439   0.006091
              43
     1  Pb  -0.008252
     2  Br   0.049809
     3  Br  -0.000080
     4  O    0.000412
     5  S    0.000329
     6  C   -0.006822
     7  C   -0.000007
     8  H    0.000366
     9  H   -0.000017
    10  H   -0.000033
    11  H    0.000007
    12  H    0.002035
    13  H   -0.000293
    14  O   -0.000016
    15  S   -0.000013
    16  C    0.000011
    17  C   -0.000001
    18  H   -0.000039
    19  H   -0.000000
    20  H   -0.000000
    21  H    0.000000
    22  H   -0.000004
    23  H    0.000002
    24  O    0.000006
    25  S    0.000001
    26  C    0.000002
    27  C    0.000000
    28  H   -0.000009
    29  H    0.000000
    30  H   -0.000000
    31  H   -0.000000
    32  H    0.000000
    33  H   -0.000000
    34  O    0.003940
    35  S   -0.032458
    36  C   -0.010867
    37  C    0.356641
    38  H   -0.000308
    39  H   -0.032643
    40  H    0.001150
    41  H   -0.021439
    42  H    0.006091
    43  H    0.616675
 Mulliken charges:
               1
     1  Pb   1.153353
     2  Br  -0.668867
     3  Br  -0.694543
     4  O   -0.680639
     5  S    0.564912
     6  C   -0.279428
     7  C   -0.323444
     8  H    0.134743
     9  H    0.132906
    10  H    0.141235
    11  H    0.139998
    12  H    0.101277
    13  H    0.097603
    14  O   -0.683981
    15  S    0.570234
    16  C   -0.280367
    17  C   -0.280378
    18  H    0.134496
    19  H    0.129593
    20  H    0.140797
    21  H    0.138226
    22  H    0.088558
    23  H    0.092267
    24  O   -0.675628
    25  S    0.569474
    26  C   -0.319689
    27  C   -0.278206
    28  H    0.142986
    29  H    0.131283
    30  H    0.143689
    31  H    0.127245
    32  H    0.127759
    33  H    0.129007
    34  O   -0.674199
    35  S    0.563097
    36  C   -0.275405
    37  C   -0.259728
    38  H    0.120796
    39  H    0.127421
    40  H    0.135197
    41  H    0.136004
    42  H    0.084524
    43  H    0.075823
 Sum of Mulliken charges =  -0.00000
 Mulliken charges with hydrogens summed into heavy atoms:
               1
     1  Pb   1.153353
     2  Br  -0.668867
     3  Br  -0.694543
     4  O   -0.680639
     5  S    0.564912
     6  C    0.097827
     7  C    0.047064
    14  O   -0.683981
    15  S    0.570234
    16  C    0.083484
    17  C    0.079708
    24  O   -0.675628
    25  S    0.569474
    26  C    0.094745
    27  C    0.109329
    34  O   -0.674199
    35  S    0.563097
    36  C    0.065112
    37  C    0.079519
 Electronic spatial extent (au):  <R**2>=           9257.3986
 Charge=             -0.0000 electrons
 Dipole moment (field-independent basis, Debye):
    X=              8.5306    Y=              9.6625    Z=             13.9719  Tot=             19.0092
 Quadrupole moment (field-independent basis, Debye-Ang):
   XX=           -126.2415   YY=           -140.6019   ZZ=           -193.0524
   XY=             13.8560   XZ=            -22.9881   YZ=            -21.3079
 Traceless Quadrupole moment (field-independent basis, Debye-Ang):
   XX=             27.0571   YY=             12.6967   ZZ=            -39.7538
   XY=             13.8560   XZ=            -22.9881   YZ=            -21.3079
 Octapole moment (field-independent basis, Debye-Ang**2):
  XXX=             99.4300  YYY=             96.1885  ZZZ=            -72.2751  XYY=             -8.5790
  XXY=            -13.4916  XXZ=             61.1637  XZZ=             -8.0776  YZZ=              0.0297
  YYZ=             38.6456  XYZ=            -45.1968
 Hexadecapole moment (field-independent basis, Debye-Ang**3):
 XXXX=          -5266.9007 YYYY=          -4799.2395 ZZZZ=          -2361.2951 XXXY=            209.3708
 XXXZ=           -226.7141 YYYX=            -95.1546 YYYZ=           -110.3160 ZZZX=              8.0452
 ZZZY=             45.7049 XXYY=          -1375.7643 XXZZ=          -1353.3906 YYZZ=          -1313.8316
 XXYZ=            -27.9323 YYXZ=             37.6099 ZZXY=             -5.7809
 N-N= 2.171944757060D+03 E-N=-9.633156411698D+03  KE= 2.212789091266D+03
 Unable to Open any file for archive entry.
 1\1\GINC-MPCL118\SP\RCAM-B3LYP TD-FC\Gen\C8H24Br2O4Pb1S4\EDBA4025\11-N
 ov-2020\0\\# cam-b3lyp/gen pseudo=read TD=NStates=10 Geom=Check Guess=
 Read empiricaldispersion=gd3bj SCRF=(Solvent=DMSO)\\PbBr2_dmso\\0,1\Pb
 ,0,-0.028389025,-0.070644573,-0.2105972033\Br,0,-2.8588155708,0.573381
 0924,-1.657101987\Br,0,0.574233218,-2.7252539364,-1.7913232343\O,0,-0.
 4682610317,1.7302229519,1.3603855492\S,0,-0.8930629315,3.2412617261,1.
 1408924161\C,0,-2.7166553408,3.2464809164,1.2397191456\C,0,-0.74051691
 14,3.59584614,-0.6456688635\H,0,-2.9792537068,2.961512045,2.2746265656
 \H,0,0.2932956395,3.3072573179,-0.9212065166\H,0,-3.0660653848,4.27451
 49913,1.0240200608\H,0,-0.9213144482,4.6784816953,-0.7859516068\H,0,-3
 .1016465547,2.5172485515,0.4993543904\H,0,-1.4721574401,2.972857022,-1
 .1989840927\O,0,1.8294905039,-0.2856705826,1.2840728493\S,0,2.81209324
 05,-1.4512537229,1.7285986031\C,0,1.8009284875,-2.9613116035,1.8645342
 356\C,0,3.7587780788,-1.896299789,0.2342244613\H,0,1.0042184421,-2.724
 7776203,2.5913645485\H,0,4.3675177321,-1.0103604745,-0.0218214235\H,0,
 2.466288018,-3.7665037128,2.2306633677\H,0,4.409134963,-2.7545087629,0
 .4907063836\H,0,1.3653472445,-3.1916947327,0.8720152034\H,0,3.03985073
 93,-2.1495192442,-0.5716896813\O,0,1.6831691238,1.6239234683,-1.101898
 4948\S,0,3.1071619107,1.7506559657,-0.4223431005\C,0,2.8405431808,2.68
 55162224,1.1236608722\C,0,3.9183486357,3.0587837725,-1.3999192467\H,0,
 2.1619872038,2.0487959235,1.7191129247\H,0,4.0634199274,2.6454617571,-
 2.4143997132\H,0,3.8195127543,2.8079216072,1.6255331037\H,0,4.89654422
 19,3.2901645888,-0.9365501137\H,0,2.3841994663,3.6655966296,0.88941123
 35\H,0,3.2624181014,3.9489926651,-1.4270072234\O,0,-0.8691685696,-1.35
 29692479,1.6593839184\S,0,-2.3126610314,-1.9224488627,1.9771822826\C,0
 ,-2.922555136,-2.6756664431,0.4303879851\C,0,-3.414154599,-0.468882987
 6,2.0230199359\H,0,-2.2075565956,-3.4798796474,0.1779260028\H,0,-3.032
 7503069,0.1733869642,2.8372738731\H,0,-3.9273251028,-3.0939166929,0.63
 27612915\H,0,-4.4383070451,-0.8210591152,2.2518970238\H,0,-2.952655921
 8,-1.9008621915,-0.3629607425\H,0,-3.3652381793,0.0440099288,1.0415350
 165\\Version=ES64L-G16RevC.01\State=1-A\HF=-2242.899047\RMSD=4.720e-09
 \PG=C01 [X(C8H24Br2O4Pb1S4)]\\@
 The archive entry for this job was punched.


 THE VALUE OF PHILOSOPHY IS, IN FACT, TO BE SOUGHT LARGELY IN ITS
 VERY UNCERTAINTY.  THE MAN WHO HAS NO TINCTURE OF PHILOSOPHY GOES
 THROUGH LIFE IMPRISONED IN THE PREJUDICES DERIVED FROM COMMON SENSE,
 FROM THE HABITUAL BELIEFS OF HIS AGE OR HIS NATION, AND FROM
 CONVICTIONS WHICH HAVE GROWN UP IN HIS MIND WITHOUT THE CO-OPERATION
 OR CONSENT OF HIS DELIBERATE REASON.  TO SUCH A MAN THE WORLD TENDS
 TO BE DEFINITE, FINITE, OBVIOUS; COMMON OBJECTS ROUSE NO QUESTIONS,
 AND UNFAMILIAR POSSIBILITIES ARE CONTEMPTUOUSLY REJECTED.

                             -- BERTRAND RUSSELL
 Job cpu time:       0 days 12 hours 30 minutes 37.1 seconds.
 Elapsed time:       0 days  1 hours 47 minutes 16.4 seconds.
 File lengths (MBytes):  RWF=   3615 Int=      0 D2E=      0 Chk=    536 Scr=      1
 Normal termination of Gaussian 16 at Wed Nov 11 20:09:21 2020.
