 Entering Gaussian System, Link 0=g16
 Input=02-PbBr2_gbl_22800230.com
 Output=02-PbBr2_gbl_22800230.log
 Initial command:
 /cm/shared/uniol/software/gaussian/g16.c01/g16/l1.exe "/scratch/22800230_edba4025/Gau-9502.inp" -scrdir="/scratch/22800230_edba4025/"
 Entering Link 1 = /cm/shared/uniol/software/gaussian/g16.c01/g16/l1.exe PID=      9503.
  
 Copyright (c) 1988-2019, Gaussian, Inc.  All Rights Reserved.
  
 This is part of the Gaussian(R) 16 program.  It is based on
 the Gaussian(R) 09 system (copyright 2009, Gaussian, Inc.),
 the Gaussian(R) 03 system (copyright 2003, Gaussian, Inc.),
 the Gaussian(R) 98 system (copyright 1998, Gaussian, Inc.),
 the Gaussian(R) 94 system (copyright 1995, Gaussian, Inc.),
 the Gaussian 92(TM) system (copyright 1992, Gaussian, Inc.),
 the Gaussian 90(TM) system (copyright 1990, Gaussian, Inc.),
 the Gaussian 88(TM) system (copyright 1988, Gaussian, Inc.),
 the Gaussian 86(TM) system (copyright 1986, Carnegie Mellon
 University), and the Gaussian 82(TM) system (copyright 1983,
 Carnegie Mellon University). Gaussian is a federally registered
 trademark of Gaussian, Inc.
  
 This software contains proprietary and confidential information,
 including trade secrets, belonging to Gaussian, Inc.
  
 This software is provided under written license and may be
 used, copied, transmitted, or stored only in accord with that
 written license.
  
 The following legend is applicable only to US Government
 contracts under FAR:
  
                    RESTRICTED RIGHTS LEGEND
  
 Use, reproduction and disclosure by the US Government is
 subject to restrictions as set forth in subparagraphs (a)
 and (c) of the Commercial Computer Software - Restricted
 Rights clause in FAR 52.227-19.
  
 Gaussian, Inc.
 340 Quinnipiac St., Bldg. 40, Wallingford CT 06492
  
  
 ---------------------------------------------------------------
 Warning -- This program may not be used in any manner that
 competes with the business of Gaussian, Inc. or will provide
 assistance to any competitor of Gaussian, Inc.  The licensee
 of this program is prohibited from giving any competitor of
 Gaussian, Inc. access to this program.  By using this program,
 the user acknowledges that Gaussian, Inc. is engaged in the
 business of creating and licensing software in the field of
 computational chemistry and represents and warrants to the
 licensee that it is not a competitor of Gaussian, Inc. and that
 it will not use this program in any manner prohibited above.
 ---------------------------------------------------------------
  

 Cite this work as:
 Gaussian 16, Revision C.01,
 M. J. Frisch, G. W. Trucks, H. B. Schlegel, G. E. Scuseria, 
 M. A. Robb, J. R. Cheeseman, G. Scalmani, V. Barone, 
 G. A. Petersson, H. Nakatsuji, X. Li, M. Caricato, A. V. Marenich, 
 J. Bloino, B. G. Janesko, R. Gomperts, B. Mennucci, H. P. Hratchian, 
 J. V. Ortiz, A. F. Izmaylov, J. L. Sonnenberg, D. Williams-Young, 
 F. Ding, F. Lipparini, F. Egidi, J. Goings, B. Peng, A. Petrone, 
 T. Henderson, D. Ranasinghe, V. G. Zakrzewski, J. Gao, N. Rega, 
 G. Zheng, W. Liang, M. Hada, M. Ehara, K. Toyota, R. Fukuda, 
 J. Hasegawa, M. Ishida, T. Nakajima, Y. Honda, O. Kitao, H. Nakai, 
 T. Vreven, K. Throssell, J. A. Montgomery, Jr., J. E. Peralta, 
 F. Ogliaro, M. J. Bearpark, J. J. Heyd, E. N. Brothers, K. N. Kudin, 
 V. N. Staroverov, T. A. Keith, R. Kobayashi, J. Normand, 
 K. Raghavachari, A. P. Rendell, J. C. Burant, S. S. Iyengar, 
 J. Tomasi, M. Cossi, J. M. Millam, M. Klene, C. Adamo, R. Cammi, 
 J. W. Ochterski, R. L. Martin, K. Morokuma, O. Farkas, 
 J. B. Foresman, and D. J. Fox, Gaussian, Inc., Wallingford CT, 2019.
 
 ******************************************
 Gaussian 16:  ES64L-G16RevC.01  3-Jul-2019
                11-Nov-2020 
 ******************************************
 %oldChk=01-PbBr2_gbl
 %chk=02-PbBr2_gbl
 %mem=16GB
 %NProcShared=7
 Will use up to    7 processors via shared memory.
 Copying data from "01-PbBr2_gbl.chk" to current chk file "02-PbBr2_gbl.chk"
 IOpt=  2 FromEx=T IUOpen= 4 IOptOp= 5 NList=   0 IFRang= 0 IUIn= 4 IUOut= 2.
 ----------------------------------------------------------------------
 # cam-b3lyp/gen pseudo=read TD=NStates=10 Geom=Check Guess=Read empiri
 caldispersion=gd3bj SCRF=(read)
 ----------------------------------------------------------------------
 1/29=2,38=1,40=2,172=1/1;
 2/12=2,40=1/2;
 3/5=7,11=9,14=-4,16=1,17=8,25=1,30=1,70=2203,74=-40,116=-2,124=41/1,2,3,8;
 4/5=1/1;
 5/5=2,38=6/2;
 8/6=1,10=1,108=10/1;
 9/41=10,42=1,70=2/14;
 6/7=2,8=2,9=2,10=2/1;
 99/5=1,9=1/99;
 ---------
 PbBr2_gbl
 ---------
 Structure from the checkpoint file:  "02-PbBr2_gbl.chk"
 Charge =  0 Multiplicity = 1
 Redundant internal coordinates found in file.  (old form).
 Pb,0,-0.384344645,-0.3387267589,0.2301559322
 Br,0,-1.4018032038,-1.3457696821,-2.2741898554
 Br,0,1.3867422348,-2.6512407657,0.7802199664
 O,0,-1.5297613342,2.0092445817,-0.3468905812
 C,0,-1.038636641,3.139523086,-0.2706784264
 C,0,0.3785610547,3.5459104128,0.061527806
 O,0,-1.808086964,4.2218785779,-0.5088328786
 C,0,0.237838536,5.031506554,0.406845164
 C,0,-0.990075022,5.4367595499,-0.4146983557
 H,0,-1.6228533363,6.2138913493,0.0492719778
 H,0,-0.733131516,5.7390908994,-1.4504166082
 H,0,1.1264693723,5.6349804069,0.1479935411
 H,0,0.0327396123,5.1572953521,1.4882810052
 H,0,0.9918017758,3.3622227787,-0.845959678
 H,0,0.785833118,2.8948900918,0.856955619
 O,0,1.2013527883,0.9925460274,2.0941665587
 C,0,2.3727353299,0.6651554919,2.2903515802
 C,0,3.5249619131,0.5968482916,1.3096840156
 O,0,2.7780577918,0.2815430634,3.5229455046
 C,0,4.7546876011,0.551668632,2.2208913185
 C,0,4.1871565425,-0.118513295,3.4763476664
 H,0,4.6481754154,0.2084320601,4.4251991379
 H,0,4.2102743978,-1.2257960319,3.4147667992
 H,0,5.6036890648,-0.0143466115,1.7968039597
 H,0,5.1000266111,1.5777293048,2.4564741655
 H,0,3.3915945347,-0.3523000953,0.7446875915
 H,0,3.4859482475,1.4322800878,0.588789074
 O,0,1.3541289688,0.8264967714,-1.1923200462
 C,0,2.1868869416,0.4068850897,-2.0057857001
 C,0,2.3866972587,-0.9869129465,-2.5443733854
 O,0,3.0801610683,1.2659410229,-2.5299293213
 C,0,3.7958472206,-0.9224727621,-3.1431559086
 C,0,3.9255379009,0.5602348149,-3.5039142248
 H,0,4.9428549863,0.9769910014,-3.4027603336
 H,0,3.5256627653,0.7959665688,-4.5107806026
 H,0,3.9355132969,-1.5768013753,-4.0221463398
 H,0,4.548710994,-1.1975209879,-2.3781532933
 H,0,1.5925794101,-1.1568752267,-3.3034993268
 H,0,2.2345891718,-1.7341663979,-1.7413185435
 O,0,-2.6629424588,-1.1249832967,1.3197387015
 C,0,-3.8060992213,-0.7830361384,1.0039617811
 C,0,-4.2642522898,0.1361669078,-0.1065572246
 O,0,-4.8627661519,-1.2689191887,1.6907322148
 C,0,-5.7085994415,0.4611912261,0.2870396886
 C,0,-6.1084628064,-0.7807047873,1.0899049773
 H,0,-6.8121549029,-0.5897551274,1.9194296531
 H,0,-6.5043137693,-1.5954749775,0.4497509997
 H,0,-6.3780097675,0.6300265862,-0.5756503627
 H,0,-5.7376139303,1.3605699726,0.9334391606
 H,0,-4.1935267438,-0.4460995236,-1.051587795
 H,0,-3.5835617797,1.0017494153,-0.2104467683
 Recover connectivity data from disk.
                           ----------------------------
                           !    Current Parameters    !
                           ! (Angstroms and Degrees)  !
 --------------------------                            --------------------------
 ! Name  Definition              Value                                          !
 --------------------------------------------------------------------------------
 ! R1    R(1,2)                  2.8846                                         !
 ! R2    R(1,3)                  2.9643                                         !
 ! R3    R(1,4)                  2.6754                                         !
 ! R4    R(1,28)                 2.5305                                         !
 ! R5    R(1,40)                 2.6453                                         !
 ! R6    R(4,5)                  1.2347                                         !
 ! R7    R(4,51)                 2.2917                                         !
 ! R8    R(5,6)                  1.5113                                         !
 ! R9    R(5,7)                  1.3492                                         !
 ! R10   R(6,8)                  1.5317                                         !
 ! R11   R(6,14)                 1.1106                                         !
 ! R12   R(6,15)                 1.1056                                         !
 ! R13   R(7,9)                  1.4676                                         !
 ! R14   R(8,9)                  1.532                                          !
 ! R15   R(8,12)                 1.1049                                         !
 ! R16   R(8,13)                 1.1079                                         !
 ! R17   R(9,10)                 1.1044                                         !
 ! R18   R(9,11)                 1.1091                                         !
 ! R19   R(14,28)                2.5848                                         !
 ! R20   R(15,16)                2.307                                          !
 ! R21   R(16,17)                1.232                                          !
 ! R22   R(17,18)                1.5146                                         !
 ! R23   R(17,19)                1.353                                          !
 ! R24   R(18,20)                1.5312                                         !
 ! R25   R(18,26)                1.1126                                         !
 ! R26   R(18,27)                1.1042                                         !
 ! R27   R(19,21)                1.4655                                         !
 ! R28   R(20,21)                1.5321                                         !
 ! R29   R(20,24)                1.105                                          !
 ! R30   R(20,25)                1.108                                          !
 ! R31   R(21,22)                1.1044                                         !
 ! R32   R(21,23)                1.1092                                         !
 ! R33   R(28,29)                1.2375                                         !
 ! R34   R(29,30)                1.5075                                         !
 ! R35   R(29,31)                1.3456                                         !
 ! R36   R(30,32)                1.5324                                         !
 ! R37   R(30,38)                1.1117                                         !
 ! R38   R(30,39)                1.1074                                         !
 ! R39   R(31,33)                1.4701                                         !
 ! R40   R(32,33)                1.5315                                         !
 ! R41   R(32,36)                1.1047                                         !
 ! R42   R(32,37)                1.108                                          !
 ! R43   R(33,34)                1.104                                          !
 ! R44   R(33,35)                1.1087                                         !
 ! R45   R(40,41)                1.2343                                         !
 ! R46   R(41,42)                1.5126                                         !
 ! R47   R(41,43)                1.3507                                         !
 ! R48   R(42,44)                1.5319                                         !
 ! R49   R(42,50)                1.1123                                         !
 ! R50   R(42,51)                1.1061                                         !
 ! R51   R(43,45)                1.4667                                         !
 ! R52   R(44,45)                1.5319                                         !
 ! R53   R(44,48)                1.1049                                         !
 ! R54   R(44,49)                1.108                                          !
 ! R55   R(45,46)                1.1044                                         !
 ! R56   R(45,47)                1.1092                                         !
 ! A1    A(2,1,3)               95.71                                           !
 ! A2    A(2,1,4)               88.1732                                         !
 ! A3    A(2,1,28)              85.1267                                         !
 ! A4    A(2,1,40)              87.1344                                         !
 ! A5    A(3,1,28)              93.0419                                         !
 ! A6    A(3,1,40)             101.9083                                         !
 ! A7    A(4,1,28)              76.6305                                         !
 ! A8    A(4,1,40)              88.9062                                         !
 ! A9    A(28,1,40)            163.7782                                         !
 ! A10   A(1,4,5)              128.299                                          !
 ! A11   A(1,4,51)              89.1417                                         !
 ! A12   A(5,4,51)             139.0467                                         !
 ! A13   A(4,5,6)              129.2514                                         !
 ! A14   A(4,5,7)              119.7774                                         !
 ! A15   A(6,5,7)              110.9705                                         !
 ! A16   A(5,6,8)              102.9567                                         !
 ! A17   A(5,6,14)             107.0806                                         !
 ! A18   A(5,6,15)             110.1965                                         !
 ! A19   A(8,6,14)             113.2898                                         !
 ! A20   A(8,6,15)             116.2799                                         !
 ! A21   A(14,6,15)            106.6836                                         !
 ! A22   A(5,7,9)              109.5654                                         !
 ! A23   A(6,8,9)              102.0819                                         !
 ! A24   A(6,8,12)             113.7677                                         !
 ! A25   A(6,8,13)             110.3163                                         !
 ! A26   A(9,8,12)             111.9944                                         !
 ! A27   A(9,8,13)             110.1847                                         !
 ! A28   A(12,8,13)            108.3944                                         !
 ! A29   A(7,9,8)              105.1987                                         !
 ! A30   A(7,9,10)             106.8634                                         !
 ! A31   A(7,9,11)             107.1498                                         !
 ! A32   A(8,9,10)             114.8415                                         !
 ! A33   A(8,9,11)             112.7804                                         !
 ! A34   A(10,9,11)            109.4659                                         !
 ! A35   A(6,14,28)            110.4361                                         !
 ! A36   A(6,15,16)            159.6712                                         !
 ! A37   A(15,16,17)           118.41                                           !
 ! A38   A(16,17,18)           129.2126                                         !
 ! A39   A(16,17,19)           120.3468                                         !
 ! A40   A(18,17,19)           110.4359                                         !
 ! A41   A(17,18,20)           103.1198                                         !
 ! A42   A(17,18,26)           106.0265                                         !
 ! A43   A(17,18,27)           111.2065                                         !
 ! A44   A(20,18,26)           111.919                                          !
 ! A45   A(20,18,27)           116.0551                                         !
 ! A46   A(26,18,27)           108.0402                                         !
 ! A47   A(17,19,21)           109.6612                                         !
 ! A48   A(18,20,21)           101.7154                                         !
 ! A49   A(18,20,24)           113.8145                                         !
 ! A50   A(18,20,25)           110.4587                                         !
 ! A51   A(21,20,24)           112.0261                                         !
 ! A52   A(21,20,25)           110.262                                          !
 ! A53   A(24,20,25)           108.451                                          !
 ! A54   A(19,21,20)           105.2366                                         !
 ! A55   A(19,21,22)           107.0514                                         !
 ! A56   A(19,21,23)           107.1156                                         !
 ! A57   A(20,21,22)           114.8271                                         !
 ! A58   A(20,21,23)           112.5468                                         !
 ! A59   A(22,21,23)           109.5426                                         !
 ! A60   A(1,28,14)            106.2663                                         !
 ! A61   A(1,28,29)            132.5097                                         !
 ! A62   A(14,28,29)           121.0026                                         !
 ! A63   A(28,29,30)           129.61                                           !
 ! A64   A(28,29,31)           119.0992                                         !
 ! A65   A(30,29,31)           111.2908                                         !
 ! A66   A(29,30,32)           102.8615                                         !
 ! A67   A(29,30,38)           106.8963                                         !
 ! A68   A(29,30,39)           110.2781                                         !
 ! A69   A(32,30,38)           113.3585                                         !
 ! A70   A(32,30,39)           115.9773                                         !
 ! A71   A(38,30,39)           107.0918                                         !
 ! A72   A(29,31,33)           109.4715                                         !
 ! A73   A(30,32,33)           102.159                                          !
 ! A74   A(30,32,36)           113.7199                                         !
 ! A75   A(30,32,37)           110.1568                                         !
 ! A76   A(33,32,36)           112.0446                                         !
 ! A77   A(33,32,37)           110.2082                                         !
 ! A78   A(36,32,37)           108.4475                                         !
 ! A79   A(31,33,32)           105.069                                          !
 ! A80   A(31,33,34)           106.7362                                         !
 ! A81   A(31,33,35)           106.9894                                         !
 ! A82   A(32,33,34)           114.9561                                         !
 ! A83   A(32,33,35)           112.9066                                         !
 ! A84   A(34,33,35)           109.59                                           !
 ! A85   A(1,40,41)            127.5945                                         !
 ! A86   A(40,41,42)           129.5462                                         !
 ! A87   A(40,41,43)           119.6584                                         !
 ! A88   A(42,41,43)           110.7902                                         !
 ! A89   A(41,42,44)           103.0543                                         !
 ! A90   A(41,42,50)           106.6424                                         !
 ! A91   A(41,42,51)           110.9846                                         !
 ! A92   A(44,42,50)           112.9128                                         !
 ! A93   A(44,42,51)           115.9981                                         !
 ! A94   A(50,42,51)           106.9024                                         !
 ! A95   A(41,43,45)           109.6591                                         !
 ! A96   A(42,44,45)           102.0496                                         !
 ! A97   A(42,44,48)           113.768                                          !
 ! A98   A(42,44,49)           110.293                                          !
 ! A99   A(45,44,48)           112.02                                           !
 ! A100  A(45,44,49)           110.2104                                         !
 ! A101  A(48,44,49)           108.3978                                         !
 ! A102  A(43,45,44)           105.2395                                         !
 ! A103  A(43,45,46)           106.9194                                         !
 ! A104  A(43,45,47)           107.1587                                         !
 ! A105  A(44,45,46)           114.8212                                         !
 ! A106  A(44,45,47)           112.7164                                         !
 ! A107  A(46,45,47)           109.4563                                         !
 ! A108  A(4,51,42)            154.3139                                         !
 ! A109  L(3,1,4,2,-1)         183.8832                                         !
 ! A110  L(3,1,4,2,-2)         190.6865                                         !
 ! D1    D(2,1,4,5)           -132.8269                                         !
 ! D2    D(2,1,4,51)            65.2518                                         !
 ! D3    D(28,1,4,5)           -47.403                                          !
 ! D4    D(28,1,4,51)          150.6757                                         !
 ! D5    D(40,1,4,5)           140.0057                                         !
 ! D6    D(40,1,4,51)          -21.9156                                         !
 ! D7    D(2,1,28,14)          116.9277                                         !
 ! D8    D(2,1,28,29)          -57.5301                                         !
 ! D9    D(3,1,28,14)         -147.5943                                         !
 ! D10   D(3,1,28,29)           37.9479                                         !
 ! D11   D(4,1,28,14)           27.6509                                         !
 ! D12   D(4,1,28,29)         -146.8069                                         !
 ! D13   D(40,1,28,14)          55.1348                                         !
 ! D14   D(40,1,28,29)        -119.323                                          !
 ! D15   D(2,1,40,41)          -57.8107                                         !
 ! D16   D(3,1,40,41)         -153.0464                                         !
 ! D17   D(4,1,40,41)           30.4147                                         !
 ! D18   D(28,1,40,41)           3.7303                                         !
 ! D19   D(1,4,5,6)              5.3913                                         !
 ! D20   D(1,4,5,7)           -174.9194                                         !
 ! D21   D(51,4,5,6)           157.1359                                         !
 ! D22   D(51,4,5,7)           -23.1748                                         !
 ! D23   D(1,4,51,42)           -7.0864                                         !
 ! D24   D(5,4,51,42)         -165.2744                                         !
 ! D25   D(4,5,6,8)           -163.4438                                         !
 ! D26   D(4,5,6,14)            76.878                                          !
 ! D27   D(4,5,6,15)           -38.7826                                         !
 ! D28   D(7,5,6,8)             16.8449                                         !
 ! D29   D(7,5,6,14)          -102.8332                                         !
 ! D30   D(7,5,6,15)           141.5061                                         !
 ! D31   D(4,5,7,9)           -177.5662                                         !
 ! D32   D(6,5,7,9)              2.1761                                         !
 ! D33   D(5,6,8,9)            -27.4964                                         !
 ! D34   D(5,6,8,12)          -148.344                                          !
 ! D35   D(5,6,8,13)            89.602                                          !
 ! D36   D(14,6,8,9)            87.7913                                         !
 ! D37   D(14,6,8,12)          -33.0564                                         !
 ! D38   D(14,6,8,13)         -155.1103                                         !
 ! D39   D(15,6,8,9)          -148.0741                                         !
 ! D40   D(15,6,8,12)           91.0783                                         !
 ! D41   D(15,6,8,13)          -30.9756                                         !
 ! D42   D(5,6,14,28)          -72.8346                                         !
 ! D43   D(8,6,14,28)          174.3579                                         !
 ! D44   D(15,6,14,28)          45.1434                                         !
 ! D45   D(5,6,15,16)           37.4945                                         !
 ! D46   D(8,6,15,16)          154.1158                                         !
 ! D47   D(14,6,15,16)         -78.4155                                         !
 ! D48   D(5,7,9,8)            -20.4866                                         !
 ! D49   D(5,7,9,10)          -142.983                                          !
 ! D50   D(5,7,9,11)            99.7612                                         !
 ! D51   D(6,8,9,7)             29.5373                                         !
 ! D52   D(6,8,9,10)           146.7326                                         !
 ! D53   D(6,8,9,11)           -86.918                                          !
 ! D54   D(12,8,9,7)           151.6083                                         !
 ! D55   D(12,8,9,10)          -91.1965                                         !
 ! D56   D(12,8,9,11)           35.153                                          !
 ! D57   D(13,8,9,7)           -87.6558                                         !
 ! D58   D(13,8,9,10)           29.5394                                         !
 ! D59   D(13,8,9,11)          155.8889                                         !
 ! D60   D(6,14,28,1)           16.9794                                         !
 ! D61   D(6,14,28,29)        -167.7851                                         !
 ! D62   D(6,15,16,17)         124.9704                                         !
 ! D63   D(15,16,17,18)        -45.9524                                         !
 ! D64   D(15,16,17,19)        134.9123                                         !
 ! D65   D(16,17,18,20)        163.287                                          !
 ! D66   D(16,17,18,26)        -78.9543                                         !
 ! D67   D(16,17,18,27)         38.2434                                         !
 ! D68   D(19,17,18,20)        -17.5093                                         !
 ! D69   D(19,17,18,26)        100.2494                                         !
 ! D70   D(19,17,18,27)       -142.5529                                         !
 ! D71   D(16,17,19,21)        177.1711                                         !
 ! D72   D(18,17,19,21)         -2.1139                                         !
 ! D73   D(17,18,20,21)         28.4157                                         !
 ! D74   D(17,18,20,24)        149.0913                                         !
 ! D75   D(17,18,20,25)        -88.6398                                         !
 ! D76   D(26,18,20,21)        -85.1221                                         !
 ! D77   D(26,18,20,24)         35.5535                                         !
 ! D78   D(26,18,20,25)        157.8224                                         !
 ! D79   D(27,18,20,21)        150.2454                                         !
 ! D80   D(27,18,20,24)        -89.0789                                         !
 ! D81   D(27,18,20,25)         33.1899                                         !
 ! D82   D(17,19,21,20)         21.0525                                         !
 ! D83   D(17,19,21,22)        143.6497                                         !
 ! D84   D(17,19,21,23)        -98.9277                                         !
 ! D85   D(18,20,21,19)        -30.4208                                         !
 ! D86   D(18,20,21,22)       -147.8643                                         !
 ! D87   D(18,20,21,23)         85.8971                                         !
 ! D88   D(24,20,21,19)       -152.3403                                         !
 ! D89   D(24,20,21,22)         90.2162                                         !
 ! D90   D(24,20,21,23)        -36.0224                                         !
 ! D91   D(25,20,21,19)         86.7772                                         !
 ! D92   D(25,20,21,22)        -30.6663                                         !
 ! D93   D(25,20,21,23)       -156.9049                                         !
 ! D94   D(1,28,29,30)           6.1416                                         !
 ! D95   D(1,28,29,31)        -173.8303                                         !
 ! D96   D(14,28,29,30)       -167.6489                                         !
 ! D97   D(14,28,29,31)         12.3792                                         !
 ! D98   D(28,29,30,32)       -163.3278                                         !
 ! D99   D(28,29,30,38)         77.0427                                         !
 ! D100  D(28,29,30,39)        -39.0413                                         !
 ! D101  D(31,29,30,32)         16.6458                                         !
 ! D102  D(31,29,30,38)       -102.9836                                         !
 ! D103  D(31,29,30,39)        140.9324                                         !
 ! D104  D(28,29,31,33)       -177.7153                                         !
 ! D105  D(30,29,31,33)          2.3079                                         !
 ! D106  D(29,30,32,33)        -27.3354                                         !
 ! D107  D(29,30,32,36)       -148.2685                                         !
 ! D108  D(29,30,32,37)         89.7619                                         !
 ! D109  D(38,30,32,33)         87.7104                                         !
 ! D110  D(38,30,32,36)        -33.2227                                         !
 ! D111  D(38,30,32,37)       -155.1923                                         !
 ! D112  D(39,30,32,33)       -147.7795                                         !
 ! D113  D(39,30,32,36)         91.2874                                         !
 ! D114  D(39,30,32,37)        -30.6822                                         !
 ! D115  D(29,31,33,32)        -20.5009                                         !
 ! D116  D(29,31,33,34)       -142.9966                                         !
 ! D117  D(29,31,33,35)         99.7472                                         !
 ! D118  D(30,32,33,31)         29.4223                                         !
 ! D119  D(30,32,33,34)        146.4377                                         !
 ! D120  D(30,32,33,35)        -86.8268                                         !
 ! D121  D(36,32,33,31)        151.5088                                         !
 ! D122  D(36,32,33,34)        -91.4758                                         !
 ! D123  D(36,32,33,35)         35.2597                                         !
 ! D124  D(37,32,33,31)        -87.638                                          !
 ! D125  D(37,32,33,34)         29.3773                                         !
 ! D126  D(37,32,33,35)        156.1129                                         !
 ! D127  D(1,40,41,42)           2.1661                                         !
 ! D128  D(1,40,41,43)        -178.75                                           !
 ! D129  D(40,41,42,44)       -164.1083                                         !
 ! D130  D(40,41,42,50)         76.7847                                         !
 ! D131  D(40,41,42,51)        -39.2976                                         !
 ! D132  D(43,41,42,44)         16.7432                                         !
 ! D133  D(43,41,42,50)       -102.3637                                         !
 ! D134  D(43,41,42,51)        141.5539                                         !
 ! D135  D(40,41,43,45)       -176.9623                                         !
 ! D136  D(42,41,43,45)          2.2821                                         !
 ! D137  D(41,42,44,45)        -27.4423                                         !
 ! D138  D(41,42,44,48)       -148.3003                                         !
 ! D139  D(41,42,44,49)         89.6586                                         !
 ! D140  D(50,42,44,45)         87.2146                                         !
 ! D141  D(50,42,44,48)        -33.6433                                         !
 ! D142  D(50,42,44,49)       -155.6844                                         !
 ! D143  D(51,42,44,45)       -148.9146                                         !
 ! D144  D(51,42,44,48)         90.2275                                         !
 ! D145  D(51,42,44,49)        -31.8136                                         !
 ! D146  D(41,42,51,4)          45.5689                                         !
 ! D147  D(44,42,51,4)         162.7119                                         !
 ! D148  D(50,42,51,4)         -70.3528                                         !
 ! D149  D(41,43,45,44)        -20.5551                                         !
 ! D150  D(41,43,45,46)       -143.0786                                         !
 ! D151  D(41,43,45,47)         99.644                                          !
 ! D152  D(42,44,45,43)         29.5251                                         !
 ! D153  D(42,44,45,46)        146.805                                          !
 ! D154  D(42,44,45,47)        -86.9328                                         !
 ! D155  D(48,44,45,43)        151.5895                                         !
 ! D156  D(48,44,45,46)        -91.1306                                         !
 ! D157  D(48,44,45,47)         35.1316                                         !
 ! D158  D(49,44,45,43)        -87.6354                                         !
 ! D159  D(49,44,45,46)         29.6445                                         !
 ! D160  D(49,44,45,47)        155.9067                                         !
 --------------------------------------------------------------------------------
 Stoichiometry    C16H24Br2O8Pb
 Framework group  C1[X(C16H24Br2O8Pb)]
 Deg. of freedom   147
 Full point group                 C1      NOp   1
 Largest Abelian subgroup         C1      NOp   1
 Largest concise Abelian subgroup C1      NOp   1
                         Standard orientation:                         
 ---------------------------------------------------------------------
 Center     Atomic      Atomic             Coordinates (Angstroms)
 Number     Number       Type             X           Y           Z
 ---------------------------------------------------------------------
      1         82           0        0.378225   -0.397216   -0.238330
      2         35           0        1.381637   -1.388595    2.277905
      3         35           0       -1.396951   -2.708748   -0.779268
      4          8           0        1.527720    1.951726    0.326524
      5          6           0        1.040152    3.082786    0.239783
      6          6           0       -0.374389    3.490686   -0.101758
      7          8           0        1.811603    4.164706    0.473401
      8          6           0       -0.227909    4.973291   -0.457380
      9          6           0        0.997473    5.381150    0.366650
     10          1           0        1.634520    6.153056   -0.100195
     11          1           0        0.736772    5.691840    1.398949
     12          1           0       -1.115968    5.581152   -0.206969
     13          1           0       -0.017631    5.090517   -1.538784
     14          1           0       -0.992192    3.315425    0.804301
     15          1           0       -0.779956    2.834957   -0.894183
     16          8           0       -1.195353    0.924705   -2.119190
     17          6           0       -2.366774    0.599164   -2.318205
     18          6           0       -3.523554    0.541334   -1.342235
     19          8           0       -2.767681    0.207602   -3.549743
     20          6           0       -4.749325    0.492880   -2.258587
     21          6           0       -4.178105   -0.188142   -3.506514
     22          1           0       -4.633955    0.133082   -4.459806
     23          1           0       -4.204642   -1.294871   -3.436878
     24          1           0       -5.601814   -0.067603   -1.834150
     25          1           0       -5.090694    1.518139   -2.503272
     26          1           0       -3.395404   -0.403988   -0.769667
     27          1           0       -3.485384    1.381952   -0.627349
     28          8           0       -1.363261    0.783353    1.167713
     29          6           0       -2.200828    0.372097    1.980509
     30          6           0       -2.406997   -1.017120    2.528453
     31          8           0       -3.093988    1.237504    2.494298
     32          6           0       -3.818616   -0.944306    3.120422
     33          6           0       -3.945703    0.541383    3.469658
     34          1           0       -4.961371    0.960235    3.360877
     35          1           0       -3.549656    0.783418    4.476542
     36          1           0       -3.964060   -1.591732    4.003577
     37          1           0       -4.568837   -1.222880    2.354101
     38          1           0       -1.616760   -1.183702    3.292363
     39          1           0       -2.253431   -1.770706    1.731617
     40          8           0        2.659419   -1.197889   -1.311865
     41          6           0        3.802122   -0.856830   -0.993496
     42          6           0        4.257925    0.069257    0.112261
     43          8           0        4.860458   -1.350735   -1.671924
     44          6           0        5.704931    0.387310   -0.277243
     45          6           0        6.104843   -0.861597   -1.069133
     46          1           0        6.812769   -0.678753   -1.896881
     47          1           0        6.495519   -1.672727   -0.421224
     48          1           0        6.370963    0.560630    0.587171
     49          1           0        5.739383    1.281807   -0.930117
     50          1           0        4.181331   -0.505816    1.061231
     51          1           0        3.579239    0.937490    0.206716
 ---------------------------------------------------------------------
 Rotational constants (GHZ):           0.1232070           0.0862102           0.0787643
 General basis read from cards:  (5D, 7F)
 ======================================================================================================
                                       Pseudopotential Parameters
 ======================================================================================================
  Center     Atomic      Valence      Angular      Power
  Number     Number     Electrons     Momentum     of R      Exponent        Coefficient   SO-Coeffient
 ======================================================================================================
    1         82            4
                                      G and up 
                                                     0      376.5803786       -0.17896050    0.00000000
                                                     1       86.4840014      -54.39723370    0.00000000
                                                     2       26.6784276     -199.70617590    0.00000000
                                                     2        9.4261986      -79.12239410    0.00000000
                                                     2        2.7101719      -24.98690200    0.00000000
                                                     2        0.8792031       -4.43979390    0.00000000
                                      S - G
                                                     0      132.4248796        2.81153860    0.00000000
                                                     1       47.2376044       65.03672050    0.00000000
                                                     2       17.6312727      212.78685450    0.00000000
                                                     2        5.4744712       72.10531750    0.00000000
                                                     2        1.2634856       33.01409400    0.00000000
                                                     2        0.7651447       -5.77084610    0.00000000
                                      P - G
                                                     0       67.8966454        4.87549110    0.00000000
                                                     1       24.9898225       63.91481020    0.00000000
                                                     2       10.7052939      148.10643580    0.00000000
                                                     2        3.2792568       47.31063010    0.00000000
                                                     2        0.8452522       21.03067020    0.00000000
                                                     2        0.6416245       -7.09307720    0.00000000
                                      D - G
                                                     0       68.8336005        3.21613880    0.00000000
                                                     1       24.2815874       55.73860860    0.00000000
                                                     2        9.4532762      121.41683510    0.00000000
                                                     2        2.4788185       19.34560640    0.00000000
                                                     2        2.4789161       15.36751680    0.00000000
                                                     2        0.5551738        6.12987240    0.00000000
                                      F - G
                                                     0      128.1021322        4.13536820    0.00000000
                                                     1       54.8029154       67.51284460    0.00000000
                                                     2       24.5529308      258.73731070    0.00000000
                                                     2        8.1144792      113.24782640    0.00000000
                                                     2        1.6931290       34.16802010    0.00000000
                                                     2        0.7670500       -6.55319560    0.00000000
    2         35            7
                                      F and up 
                                                     1      213.6143969      -28.00000000    0.00000000
                                                     2       41.0585380     -134.92688520    0.00000000
                                                     2        8.7086530      -41.92719130    0.00000000
                                                     2        2.6074661       -5.93364200    0.00000000
                                      S - F
                                                     0       54.1980682        3.00000000    0.00000000
                                                     1       32.9053558       27.34306420    0.00000000
                                                     2       13.6744890      118.80288470    0.00000000
                                                     2        3.0341152       43.43548760    0.00000000
                                      P - F
                                                     0       54.2563340        5.00000000    0.00000000
                                                     1       26.0095593       25.05042520    0.00000000
                                                     2       28.2012995       92.61574630    0.00000000
                                                     2        9.4341061       95.82490160    0.00000000
                                                     2        2.5321764       26.26849830    0.00000000
                                      D - F
                                                     0       87.6328721        3.00000000    0.00000000
                                                     1       61.7373377       22.55335570    0.00000000
                                                     2       32.4385104      178.12419880    0.00000000
                                                     2        8.7537199       76.99241620    0.00000000
                                                     2        1.6633189        9.48182700    0.00000000
    3         35            7
                                      F and up 
                                                     1      213.6143969      -28.00000000    0.00000000
                                                     2       41.0585380     -134.92688520    0.00000000
                                                     2        8.7086530      -41.92719130    0.00000000
                                                     2        2.6074661       -5.93364200    0.00000000
                                      S - F
                                                     0       54.1980682        3.00000000    0.00000000
                                                     1       32.9053558       27.34306420    0.00000000
                                                     2       13.6744890      118.80288470    0.00000000
                                                     2        3.0341152       43.43548760    0.00000000
                                      P - F
                                                     0       54.2563340        5.00000000    0.00000000
                                                     1       26.0095593       25.05042520    0.00000000
                                                     2       28.2012995       92.61574630    0.00000000
                                                     2        9.4341061       95.82490160    0.00000000
                                                     2        2.5321764       26.26849830    0.00000000
                                      D - F
                                                     0       87.6328721        3.00000000    0.00000000
                                                     1       61.7373377       22.55335570    0.00000000
                                                     2       32.4385104      178.12419880    0.00000000
                                                     2        8.7537199       76.99241620    0.00000000
                                                     2        1.6633189        9.48182700    0.00000000
    4          8
                                   No pseudopotential on this center.
    5          6
                                   No pseudopotential on this center.
    6          6
                                   No pseudopotential on this center.
    7          8
                                   No pseudopotential on this center.
    8          6
                                   No pseudopotential on this center.
    9          6
                                   No pseudopotential on this center.
   10          1
                                   No pseudopotential on this center.
   11          1
                                   No pseudopotential on this center.
   12          1
                                   No pseudopotential on this center.
   13          1
                                   No pseudopotential on this center.
   14          1
                                   No pseudopotential on this center.
   15          1
                                   No pseudopotential on this center.
   16          8
                                   No pseudopotential on this center.
   17          6
                                   No pseudopotential on this center.
   18          6
                                   No pseudopotential on this center.
   19          8
                                   No pseudopotential on this center.
   20          6
                                   No pseudopotential on this center.
   21          6
                                   No pseudopotential on this center.
   22          1
                                   No pseudopotential on this center.
   23          1
                                   No pseudopotential on this center.
   24          1
                                   No pseudopotential on this center.
   25          1
                                   No pseudopotential on this center.
   26          1
                                   No pseudopotential on this center.
   27          1
                                   No pseudopotential on this center.
   28          8
                                   No pseudopotential on this center.
   29          6
                                   No pseudopotential on this center.
   30          6
                                   No pseudopotential on this center.
   31          8
                                   No pseudopotential on this center.
   32          6
                                   No pseudopotential on this center.
   33          6
                                   No pseudopotential on this center.
   34          1
                                   No pseudopotential on this center.
   35          1
                                   No pseudopotential on this center.
   36          1
                                   No pseudopotential on this center.
   37          1
                                   No pseudopotential on this center.
   38          1
                                   No pseudopotential on this center.
   39          1
                                   No pseudopotential on this center.
   40          8
                                   No pseudopotential on this center.
   41          6
                                   No pseudopotential on this center.
   42          6
                                   No pseudopotential on this center.
   43          8
                                   No pseudopotential on this center.
   44          6
                                   No pseudopotential on this center.
   45          6
                                   No pseudopotential on this center.
   46          1
                                   No pseudopotential on this center.
   47          1
                                   No pseudopotential on this center.
   48          1
                                   No pseudopotential on this center.
   49          1
                                   No pseudopotential on this center.
   50          1
                                   No pseudopotential on this center.
   51          1
                                   No pseudopotential on this center.
 ======================================================================================================
 There are  1224 symmetry adapted cartesian basis functions of A   symmetry.
 There are  1080 symmetry adapted basis functions of A   symmetry.
  1080 basis functions,  1692 primitive gaussians,  1224 cartesian basis functions
   101 alpha electrons      101 beta electrons
       nuclear repulsion energy      2412.7664023504 Hartrees.
 NAtoms=   51 NActive=   51 NUniq=   51 SFac= 1.00D+00 NAtFMM=   60 NAOKFM=F Big=F
 Integral buffers will be    131072 words long.
 Raffenetti 1 integral format.
 Two-electron integral symmetry is turned on.
 Nuclear repulsion after empirical dispersion term =     2412.7093583500 Hartrees.
 Using the following non-standard input for PCM:
 eps=41.70
 --- end of non-standard input.
 ------------------------------------------------------------------------------
 Polarizable Continuum Model (PCM)
 =================================
 Model                : PCM.
 Atomic radii         : UFF (Universal Force Field).
 Polarization charges : Total charges.
 Charge compensation  : None.
 Solution method      : On-the-fly selection.
 Cavity type          : Scaled VdW (van der Waals Surface) (Alpha=1.100).
 Cavity algorithm     : GePol (No added spheres)
                        Default sphere list used, NSphG=   51.
                        Lebedev-Laikov grids with approx.  5.0 points / Ang**2.
                        Smoothing algorithm: York/Karplus (Gamma=1.0000).
                        Polarization charges: spherical gaussians, with
                                              point-specific exponents (IZeta= 3).
                        Self-potential: point-specific (ISelfS= 7).
                        Self-field    : sphere-specific E.n sum rule (ISelfD= 2).
 Solvent              : Water, Eps=  41.700000 Eps(inf)=   1.777849
 ------------------------------------------------------------------------------
 One-electron integrals computed using PRISM.
   1 Symmetry operations used in ECPInt.
 ECPInt:  NShTT=   78606 NPrTT=  291717 LenC2=   57738 LenP2D=  133631.
 LDataN:  DoStor=T MaxTD1= 7 Len=  274
 NBasis=  1080 RedAO= T EigKep=  3.12D-04  NBF=  1080
 NBsUse=  1080 1.00D-06 EigRej= -1.00D+00 NBFU=  1080
 Defaulting to unpruned grid for atomic number  82.
 Initial guess from the checkpoint file:  "02-PbBr2_gbl.chk"
 B after Tr=    -0.000000    0.000000   -0.000000
         Rot=    1.000000   -0.000000   -0.000000   -0.000000 Ang=   0.00 deg.
 Requested convergence on RMS density matrix=1.00D-08 within 128 cycles.
 Requested convergence on MAX density matrix=1.00D-06.
 Requested convergence on             energy=1.00D-06.
 No special actions if energy rises.
 Defaulting to unpruned grid for atomic number  82.
 Defaulting to unpruned grid for atomic number  82.
 Defaulting to unpruned grid for atomic number  82.
 Defaulting to unpruned grid for atomic number  82.
 Defaulting to unpruned grid for atomic number  82.
 Defaulting to unpruned grid for atomic number  82.
 Defaulting to unpruned grid for atomic number  82.
 Inv3:  Mode=1 IEnd=    53856507.
 Iteration    1 A*A^-1 deviation from unit magnitude is 3.33D-15 for   3042.
 Iteration    1 A*A^-1 deviation from orthogonality  is 3.33D-15 for   2809    191.
 Iteration    1 A^-1*A deviation from unit magnitude is 3.22D-15 for   2382.
 Iteration    1 A^-1*A deviation from orthogonality  is 2.61D-15 for   2362   2347.
 Error on total polarization charges =  0.01867
 SCF Done:  E(RCAM-B3LYP) =  -1255.89966857     A.U. after   11 cycles
            NFock= 11  Conv=0.82D-08     -V/T= 2.0235
 DoSCS=F DFT=T ScalE2(SS,OS)=  1.000000  1.000000
 ExpMin= 5.98D-02 ExpMax= 1.53D+04 ExpMxC= 5.22D+02 IAcc=3 IRadAn=         5 AccDes= 0.00D+00
 HarFok:  IExCor=  205 AccDes= 0.00D+00 IRadAn=         5 IDoV=-2 UseB2=F ITyADJ=14
 ICtDFT= 12500011 ScaDFX=  1.000000  1.000000  1.000000  1.000000
 Defaulting to unpruned grid for atomic number  82.
 GSVD:  LWork=        -768 too small for GESVD, short by        3240 words or        3240 for optimal perf.
 Range of M.O.s used for correlation:    25  1080
 NBasis=  1080 NAE=   101 NBE=   101 NFC=    24 NFV=     0
 NROrb=   1056 NOA=    77 NOB=    77 NVA=   979 NVB=   979
 NEqPCM:  Using non-equilibrium solvation (IEInf=1, Eps=  41.7000, EpsInf=   1.7778)
 Inv3:  Mode=1 IEnd=    53856507.
 Iteration    1 A*A^-1 deviation from unit magnitude is 4.88D-15 for    504.
 Iteration    1 A*A^-1 deviation from orthogonality  is 1.94D-15 for   2973   2838.
 Iteration    1 A^-1*A deviation from unit magnitude is 4.44D-15 for    504.
 Iteration    1 A^-1*A deviation from orthogonality  is 3.41D-15 for   2669   2638.
 Orbital symmetries:
       Occupied  (A) (A) (A) (A) (A) (A) (A) (A) (A) (A) (A) (A)
                 (A) (A) (A) (A) (A) (A) (A) (A) (A) (A) (A) (A)
                 (A) (A) (A) (A) (A) (A) (A) (A) (A) (A) (A) (A)
                 (A) (A) (A) (A) (A) (A) (A) (A) (A) (A) (A) (A)
                 (A) (A) (A) (A) (A) (A) (A) (A) (A) (A) (A) (A)
                 (A) (A) (A) (A) (A) (A) (A) (A) (A) (A) (A) (A)
                 (A) (A) (A) (A) (A) (A) (A) (A) (A) (A) (A) (A)
                 (A) (A) (A) (A) (A) (A) (A) (A) (A) (A) (A) (A)
                 (A) (A) (A) (A) (A)
       Virtual   (A) (A) (A) (A) (A) (A) (A) (A) (A) (A) (A) (A)
                 (A) (A) (A) (A) (A) (A) (A) (A) (A) (A) (A) (A)
                 (A) (A) (A) (A) (A) (A) (A) (A) (A) (A) (A) (A)
                 (A) (A) (A) (A) (A) (A) (A) (A) (A) (A) (A) (A)
                 (A) (A) (A) (A) (A) (A) (A) (A) (A) (A) (A) (A)
                 (A) (A) (A) (A) (A) (A) (A) (A) (A) (A) (A) (A)
                 (A) (A) (A) (A) (A) (A) (A) (A) (A) (A) (A) (A)
                 (A) (A) (A) (A) (A) (A) (A) (A) (A) (A) (A) (A)
                 (A) (A) (A) (A) (A) (A) (A) (A) (A) (A) (A) (A)
                 (A) (A) (A) (A) (A) (A) (A) (A) (A) (A) (A) (A)
                 (A) (A) (A) (A) (A) (A) (A) (A) (A) (A) (A) (A)
                 (A) (A) (A) (A) (A) (A) (A) (A) (A) (A) (A) (A)
                 (A) (A) (A) (A) (A) (A) (A) (A) (A) (A) (A) (A)
                 (A) (A) (A) (A) (A) (A) (A) (A) (A) (A) (A) (A)
                 (A) (A) (A) (A) (A) (A) (A) (A) (A) (A) (A) (A)
                 (A) (A) (A) (A) (A) (A) (A) (A) (A) (A) (A) (A)
                 (A) (A) (A) (A) (A) (A) (A) (A) (A) (A) (A) (A)
                 (A) (A) (A) (A) (A) (A) (A) (A) (A) (A) (A) (A)
                 (A) (A) (A) (A) (A) (A) (A) (A) (A) (A) (A) (A)
                 (A) (A) (A) (A) (A) (A) (A) (A) (A) (A) (A) (A)
                 (A) (A) (A) (A) (A) (A) (A) (A) (A) (A) (A) (A)
                 (A) (A) (A) (A) (A) (A) (A) (A) (A) (A) (A) (A)
                 (A) (A) (A) (A) (A) (A) (A) (A) (A) (A) (A) (A)
                 (A) (A) (A) (A) (A) (A) (A) (A) (A) (A) (A) (A)
                 (A) (A) (A) (A) (A) (A) (A) (A) (A) (A) (A) (A)
                 (A) (A) (A) (A) (A) (A) (A) (A) (A) (A) (A) (A)
                 (A) (A) (A) (A) (A) (A) (A) (A) (A) (A) (A) (A)
                 (A) (A) (A) (A) (A) (A) (A) (A) (A) (A) (A) (A)
                 (A) (A) (A) (A) (A) (A) (A) (A) (A) (A) (A) (A)
                 (A) (A) (A) (A) (A) (A) (A) (A) (A) (A) (A) (A)
                 (A) (A) (A) (A) (A) (A) (A) (A) (A) (A) (A) (A)
                 (A) (A) (A) (A) (A) (A) (A) (A) (A) (A) (A) (A)
                 (A) (A) (A) (A) (A) (A) (A) (A) (A) (A) (A) (A)
                 (A) (A) (A) (A) (A) (A) (A) (A) (A) (A) (A) (A)
                 (A) (A) (A) (A) (A) (A) (A) (A) (A) (A) (A) (A)
                 (A) (A) (A) (A) (A) (A) (A) (A) (A) (A) (A) (A)
                 (A) (A) (A) (A) (A) (A) (A) (A) (A) (A) (A) (A)
                 (A) (A) (A) (A) (A) (A) (A) (A) (A) (A) (A) (A)
                 (A) (A) (A) (A) (A) (A) (A) (A) (A) (A) (A) (A)
                 (A) (A) (A) (A) (A) (A) (A) (A) (A) (A) (A) (A)
                 (A) (A) (A) (A) (A) (A) (A) (A) (A) (A) (A) (A)
                 (A) (A) (A) (A) (A) (A) (A) (A) (A) (A) (A) (A)
                 (A) (A) (A) (A) (A) (A) (A) (A) (A) (A) (A) (A)
                 (A) (A) (A) (A) (A) (A) (A) (A) (A) (A) (A) (A)
                 (A) (A) (A) (A) (A) (A) (A) (A) (A) (A) (A) (A)
                 (A) (A) (A) (A) (A) (A) (A) (A) (A) (A) (A) (A)
                 (A) (A) (A) (A) (A) (A) (A) (A) (A) (A) (A) (A)
                 (A) (A) (A) (A) (A) (A) (A) (A) (A) (A) (A) (A)
                 (A) (A) (A) (A) (A) (A) (A) (A) (A) (A) (A) (A)
                 (A) (A) (A) (A) (A) (A) (A) (A) (A) (A) (A) (A)
                 (A) (A) (A) (A) (A) (A) (A) (A) (A) (A) (A) (A)
                 (A) (A) (A) (A) (A) (A) (A) (A) (A) (A) (A) (A)
                 (A) (A) (A) (A) (A) (A) (A) (A) (A) (A) (A) (A)
                 (A) (A) (A) (A) (A) (A) (A) (A) (A) (A) (A) (A)
                 (A) (A) (A) (A) (A) (A) (A) (A) (A) (A) (A) (A)
                 (A) (A) (A) (A) (A) (A) (A) (A) (A) (A) (A) (A)
                 (A) (A) (A) (A) (A) (A) (A) (A) (A) (A) (A) (A)
                 (A) (A) (A) (A) (A) (A) (A) (A) (A) (A) (A) (A)
                 (A) (A) (A) (A) (A) (A) (A) (A) (A) (A) (A) (A)
                 (A) (A) (A) (A) (A) (A) (A) (A) (A) (A) (A) (A)
                 (A) (A) (A) (A) (A) (A) (A) (A) (A) (A) (A) (A)
                 (A) (A) (A) (A) (A) (A) (A) (A) (A) (A) (A) (A)
                 (A) (A) (A) (A) (A) (A) (A) (A) (A) (A) (A) (A)
                 (A) (A) (A) (A) (A) (A) (A) (A) (A) (A) (A) (A)
                 (A) (A) (A) (A) (A) (A) (A) (A) (A) (A) (A) (A)
                 (A) (A) (A) (A) (A) (A) (A) (A) (A) (A) (A) (A)
                 (A) (A) (A) (A) (A) (A) (A) (A) (A) (A) (A) (A)
                 (A) (A) (A) (A) (A) (A) (A) (A) (A) (A) (A) (A)
                 (A) (A) (A) (A) (A) (A) (A) (A) (A) (A) (A) (A)
                 (A) (A) (A) (A) (A) (A) (A) (A) (A) (A) (A) (A)
                 (A) (A) (A) (A) (A) (A) (A) (A) (A) (A) (A) (A)
                 (A) (A) (A) (A) (A) (A) (A) (A) (A) (A) (A) (A)
                 (A) (A) (A) (A) (A) (A) (A) (A) (A) (A) (A) (A)
                 (A) (A) (A) (A) (A) (A) (A) (A) (A) (A) (A) (A)
                 (A) (A) (A) (A) (A) (A) (A) (A) (A) (A) (A) (A)
                 (A) (A) (A) (A) (A) (A) (A) (A) (A) (A) (A) (A)
                 (A) (A) (A) (A) (A) (A) (A) (A) (A) (A) (A) (A)
                 (A) (A) (A) (A) (A) (A) (A) (A) (A) (A) (A) (A)
                 (A) (A) (A) (A) (A) (A) (A) (A) (A) (A) (A) (A)
                 (A) (A) (A) (A) (A) (A) (A) (A) (A) (A) (A) (A)
                 (A) (A) (A) (A) (A) (A) (A) (A) (A) (A) (A) (A)
                 (A) (A) (A) (A) (A) (A) (A)
    40 initial guesses have been made.
 Convergence on wavefunction:    0.001000000000000
 Iteration     1 Dimension    40 NMult     0 NNew     40
 CISAX will form    40 AO SS matrices at one time.
 Defaulting to unpruned grid for atomic number  82.
 Defaulting to unpruned grid for atomic number  82.
 Defaulting to unpruned grid for atomic number  82.
 Defaulting to unpruned grid for atomic number  82.
 Defaulting to unpruned grid for atomic number  82.
 Defaulting to unpruned grid for atomic number  82.
 Defaulting to unpruned grid for atomic number  82.
 New state      2 was old state      3
 New state      3 was old state      5
 New state      4 was old state      2
 New state      5 was old state      6
 New state      6 was old state      8
 New state      8 was old state      4
 Iteration     2 Dimension    60 NMult    40 NNew     20
 New state      8 was old state     10
 New state      9 was old state      8
 New state     10 was old state      9
 Iteration     3 Dimension    80 NMult    60 NNew     20
 New state      6 was old state      8
 New state      7 was old state      6
 New state      8 was old state      7
 Iteration     4 Dimension   100 NMult    80 NNew     20
 New state      3 was old state      5
 New state      4 was old state      3
 New state      5 was old state      4
 New state      7 was old state      8
 New state      8 was old state      7
 Iteration     5 Dimension   120 NMult   100 NNew     20
 New state      4 was old state      5
 New state      5 was old state      4
 Iteration     6 Dimension   140 NMult   120 NNew     20
 Iteration     7 Dimension   160 NMult   140 NNew     20
 Iteration     8 Dimension   178 NMult   160 NNew     18
 ***********************************************************************
 Excited states from <AA,BB:AA,BB> singles matrix:
 ***********************************************************************
 
 Ground to excited state transition densities written to RWF  633
 Ground to excited state transition electric dipole moments (Au):
       state          X           Y           Z        Dip. S.      Osc.
         1         0.0436      0.5940     -0.7975      0.9907      0.1342
         2        -0.5733     -0.2595     -0.1732      0.4260      0.0599
         3         0.2516     -0.1776      0.0781      0.1010      0.0143
         4         0.2598     -0.0876     -0.0565      0.0783      0.0112
         5        -0.2486     -0.1309     -0.1333      0.0967      0.0138
         6         0.4532      0.2411     -0.1708      0.2927      0.0424
         7        -0.0496     -0.1319     -0.5428      0.3145      0.0461
         8         0.1659     -0.6780      0.0809      0.4937      0.0730
         9        -0.8348     -0.0690     -0.2628      0.7708      0.1146
        10        -0.3940      0.2687      0.0441      0.2294      0.0344
 Ground to excited state transition velocity dipole moments (Au):
       state          X           Y           Z        Dip. S.      Osc.
         1        -0.0130     -0.1021      0.1293      0.0273      0.0896
         2         0.0888      0.0359      0.0283      0.0100      0.0315
         3        -0.0555      0.0340     -0.0175      0.0045      0.0142
         4        -0.0561      0.0159      0.0204      0.0038      0.0119
         5         0.0461      0.0522      0.0275      0.0056      0.0174
         6        -0.1100     -0.0370      0.0622      0.0173      0.0532
         7         0.0075      0.0245      0.0943      0.0096      0.0290
         8        -0.0350      0.1464     -0.0316      0.0237      0.0712
         9         0.1707      0.0341      0.0267      0.0310      0.0927
        10         0.1026     -0.0815     -0.0220      0.0176      0.0524
 Ground to excited state transition magnetic dipole moments (Au):
       state          X           Y           Z
         1         0.1228     -0.4705     -0.3557
         2         0.8618     -0.3442     -0.1898
         3        -0.0467     -0.5838     -0.4242
         4         0.8211     -0.1237      0.5002
         5         0.0780     -0.2051     -0.0602
         6        -0.5378     -0.0262     -0.2473
         7         0.5008      0.5034      0.2946
         8         0.1853      0.1039      0.6607
         9        -0.2870     -0.6415      0.0367
        10        -0.0695     -0.1037      0.1042
 Ground to excited state transition velocity quadrupole moments (Au):
       state          XX          YY          ZZ          XY          XZ          YZ
         1        -0.5100      0.1381      0.1591      0.0255     -0.0406     -0.2874
         2         0.0079      0.0295     -0.0556     -0.1236     -0.2582     -0.0717
         3        -0.0520      0.1262      0.0656     -0.0487      0.0771     -0.0693
         4        -0.2774     -0.0187      0.1298      0.0283     -0.0009     -0.0253
         5         0.0939     -0.2527      0.1812      0.0422      0.0548      0.0649
         6        -0.4380     -0.0500      0.3037      0.2463     -0.1842      0.0250
         7        -0.1933      0.0993      0.1323     -0.1113      0.1049     -0.1025
         8        -0.2140      0.1064      0.1518      0.0813      0.0824      0.1923
         9         0.2395     -0.2268      0.0294     -0.2404      0.0887     -0.0113
        10        -0.1059      0.3207     -0.1720     -0.2316      0.0414     -0.0518
 <0|del|b> * <b|rxdel|0> + <0|del|b> * <b|delr+rdel|0>
 Rotatory Strengths (R) in cgs (10**-40 erg-esu-cm/Gauss)
       state          XX          YY          ZZ    R(velocity)    E-M Angle
         1         2.0178    -82.0505     81.4592      0.4755       89.76
         2       -20.0322    114.4702    102.7155     65.7178       51.56
         3       -23.6158     21.5967    -30.7162    -10.9117      101.66
         4        14.6201    -57.8308    -81.7314    -41.6474      129.13
         5       -23.1389      6.2102    -11.9121     -9.6136      120.97
         6        -9.6254     41.8427    113.4420     48.5531       55.01
         7        43.5386     66.4533     31.2575     47.0831       54.29
         8       -32.3799    -50.2823     43.9025    -12.9199       96.53
         9       -48.0976    -69.0007   -104.5172    -73.8718      124.33
        10        23.0479    -31.2376      5.1423     -1.0158       92.57
 1/2[<0|r|b>*<b|rxdel|0> + (<0|rxdel|b>*<b|r|0>)*]
 Rotatory Strengths (R) in cgs (10**-40 erg-esu-cm/Gauss)
       state          XX          YY          ZZ     R(length)
         1        -3.7885    197.6364   -200.5950     -2.2490
         2       349.3643    -63.1624    -23.2452     87.6522
         3         8.3113    -73.3221     23.4317    -13.8597
         4      -150.8384     -7.6585     19.9847    -46.1708
         5        13.7171    -18.9771     -5.6752     -3.6451
         6       172.3526      4.4702    -29.8824     48.9802
         7        17.5817     46.9555    113.0725     59.2032
         8       -21.7400     49.7901    -37.7830     -3.2443
         9      -169.4285    -31.3114      6.8235    -64.6388
        10       -19.3592     19.7123     -3.2463     -0.9644
  1/2[<0|del|b>*<b|r|0> + (<0|r|b>*<b|del|0>)*] (Au)
       state          X           Y           Z        Dip. S.   Osc.(frdel)
         1        -0.0006     -0.0606     -0.1032      0.1643      0.1096
         2        -0.0509     -0.0093     -0.0049      0.0651      0.0434
         3        -0.0140     -0.0060     -0.0014      0.0214      0.0143
         4        -0.0146     -0.0014     -0.0012      0.0171      0.0114
         5        -0.0115     -0.0068     -0.0037      0.0219      0.0146
         6        -0.0498     -0.0089     -0.0106      0.0694      0.0463
         7        -0.0004     -0.0032     -0.0512      0.0548      0.0365
         8        -0.0058     -0.0993     -0.0026      0.1076      0.0718
         9        -0.1425     -0.0024     -0.0070      0.1519      0.1012
        10        -0.0404     -0.0219     -0.0010      0.0633      0.0422

 Excitation energies and oscillator strengths:
 
 Excited State   1:      Singlet-A      5.5298 eV  224.21 nm  f=0.1342  <S**2>=0.000
      93 -> 105        0.11363
     101 -> 102        0.63449
 This state for optimization and/or second-order correction.
 Total Energy, E(TD-HF/TD-DFT) =  -1255.69645045    
 Copying the excited state density for this state as the 1-particle RhoCI density.
 
 Excited State   2:      Singlet-A      5.7424 eV  215.91 nm  f=0.0599  <S**2>=0.000
      91 -> 103        0.10834
      94 -> 103        0.14476
      95 -> 102       -0.10077
      95 -> 104        0.14876
      98 -> 102       -0.12687
     100 -> 102       -0.27221
     101 -> 103        0.43287
     101 -> 104       -0.19474
 
 Excited State   3:      Singlet-A      5.7922 eV  214.06 nm  f=0.0143  <S**2>=0.000
      93 -> 104        0.13858
      95 -> 102        0.27325
      95 -> 104       -0.35811
      95 -> 108       -0.17702
     100 -> 102       -0.17703
     101 -> 103        0.12582
     101 -> 104        0.21229
     101 -> 105        0.18483
 
 Excited State   4:      Singlet-A      5.8253 eV  212.84 nm  f=0.0112  <S**2>=0.000
      93 -> 102        0.15854
      93 -> 104        0.11146
      93 -> 107        0.14388
      94 -> 102       -0.14067
      94 -> 105        0.21485
      95 -> 104        0.21189
      98 -> 102       -0.11227
     101 -> 103       -0.15739
     101 -> 105        0.37642
 
 Excited State   5:      Singlet-A      5.8449 eV  212.12 nm  f=0.0138  <S**2>=0.000
      89 -> 103        0.12120
      91 -> 103        0.13363
      94 -> 103        0.13434
      97 -> 102        0.21816
      98 -> 102       -0.16510
      98 -> 103       -0.10703
      99 -> 102        0.17320
     100 -> 102        0.44126
     101 -> 103        0.16708
     101 -> 104        0.10282
     101 -> 106       -0.11068
 
 Excited State   6:      Singlet-A      5.9097 eV  209.80 nm  f=0.0424  <S**2>=0.000
      98 -> 102       -0.38232
      98 -> 108       -0.11780
      99 -> 102        0.40188
     101 -> 103       -0.19388
     101 -> 105       -0.13851
 
 Excited State   7:      Singlet-A      5.9768 eV  207.44 nm  f=0.0461  <S**2>=0.000
      93 -> 102       -0.10309
      93 -> 104       -0.11372
      93 -> 105       -0.20686
      93 -> 106        0.14110
      94 -> 107       -0.10905
      95 -> 104       -0.10079
     100 -> 102        0.24062
     101 -> 102        0.14002
     101 -> 104       -0.12377
     101 -> 105        0.17875
     101 -> 106        0.33274
     101 -> 107       -0.20298
 
 Excited State   8:      Singlet-A      6.0313 eV  205.57 nm  f=0.0730  <S**2>=0.000
      94 -> 105       -0.12931
      94 -> 107        0.10278
      97 -> 102        0.17758
      99 -> 102        0.24150
      99 -> 103       -0.12199
      99 -> 107       -0.12629
     100 -> 103        0.13381
     101 -> 102       -0.11251
     101 -> 105        0.21675
     101 -> 106        0.34418
     101 -> 107        0.19625
 
 Excited State   9:      Singlet-A      6.0694 eV  204.28 nm  f=0.1146  <S**2>=0.000
      89 -> 103       -0.15811
      91 -> 103       -0.16616
      94 -> 103       -0.17620
      95 -> 102        0.10435
      95 -> 104       -0.10691
      97 -> 102        0.14474
      98 -> 103        0.15696
     100 -> 102        0.11230
     100 -> 103        0.23722
     101 -> 102        0.11346
     101 -> 103        0.20392
     101 -> 104       -0.22290
     101 -> 106       -0.17392
     101 -> 108        0.13332
 
 Excited State  10:      Singlet-A      6.1119 eV  202.86 nm  f=0.0344  <S**2>=0.000
      97 -> 102       -0.20466
      98 -> 102        0.37757
      98 -> 107       -0.13335
      99 -> 102        0.32108
      99 -> 103       -0.22569
      99 -> 107       -0.18502
     100 -> 103       -0.17996
     101 -> 106       -0.11990
 SavETr:  write IOETrn=   770 NScale= 10 NData=  16 NLR=1 NState=   10 LETran=     190.

 **********************************************************************

            Population analysis using the SCF Density.

 **********************************************************************

 Orbital symmetries:
       Occupied  (A) (A) (A) (A) (A) (A) (A) (A) (A) (A) (A) (A)
                 (A) (A) (A) (A) (A) (A) (A) (A) (A) (A) (A) (A)
                 (A) (A) (A) (A) (A) (A) (A) (A) (A) (A) (A) (A)
                 (A) (A) (A) (A) (A) (A) (A) (A) (A) (A) (A) (A)
                 (A) (A) (A) (A) (A) (A) (A) (A) (A) (A) (A) (A)
                 (A) (A) (A) (A) (A) (A) (A) (A) (A) (A) (A) (A)
                 (A) (A) (A) (A) (A) (A) (A) (A) (A) (A) (A) (A)
                 (A) (A) (A) (A) (A) (A) (A) (A) (A) (A) (A) (A)
                 (A) (A) (A) (A) (A)
       Virtual   (A) (A) (A) (A) (A) (A) (A) (A) (A) (A) (A) (A)
                 (A) (A) (A) (A) (A) (A) (A) (A) (A) (A) (A) (A)
                 (A) (A) (A) (A) (A) (A) (A) (A) (A) (A) (A) (A)
                 (A) (A) (A) (A) (A) (A) (A) (A) (A) (A) (A) (A)
                 (A) (A) (A) (A) (A) (A) (A) (A) (A) (A) (A) (A)
                 (A) (A) (A) (A) (A) (A) (A) (A) (A) (A) (A) (A)
                 (A) (A) (A) (A) (A) (A) (A) (A) (A) (A) (A) (A)
                 (A) (A) (A) (A) (A) (A) (A) (A) (A) (A) (A) (A)
                 (A) (A) (A) (A) (A) (A) (A) (A) (A) (A) (A) (A)
                 (A) (A) (A) (A) (A) (A) (A) (A) (A) (A) (A) (A)
                 (A) (A) (A) (A) (A) (A) (A) (A) (A) (A) (A) (A)
                 (A) (A) (A) (A) (A) (A) (A) (A) (A) (A) (A) (A)
                 (A) (A) (A) (A) (A) (A) (A) (A) (A) (A) (A) (A)
                 (A) (A) (A) (A) (A) (A) (A) (A) (A) (A) (A) (A)
                 (A) (A) (A) (A) (A) (A) (A) (A) (A) (A) (A) (A)
                 (A) (A) (A) (A) (A) (A) (A) (A) (A) (A) (A) (A)
                 (A) (A) (A) (A) (A) (A) (A) (A) (A) (A) (A) (A)
                 (A) (A) (A) (A) (A) (A) (A) (A) (A) (A) (A) (A)
                 (A) (A) (A) (A) (A) (A) (A) (A) (A) (A) (A) (A)
                 (A) (A) (A) (A) (A) (A) (A) (A) (A) (A) (A) (A)
                 (A) (A) (A) (A) (A) (A) (A) (A) (A) (A) (A) (A)
                 (A) (A) (A) (A) (A) (A) (A) (A) (A) (A) (A) (A)
                 (A) (A) (A) (A) (A) (A) (A) (A) (A) (A) (A) (A)
                 (A) (A) (A) (A) (A) (A) (A) (A) (A) (A) (A) (A)
                 (A) (A) (A) (A) (A) (A) (A) (A) (A) (A) (A) (A)
                 (A) (A) (A) (A) (A) (A) (A) (A) (A) (A) (A) (A)
                 (A) (A) (A) (A) (A) (A) (A) (A) (A) (A) (A) (A)
                 (A) (A) (A) (A) (A) (A) (A) (A) (A) (A) (A) (A)
                 (A) (A) (A) (A) (A) (A) (A) (A) (A) (A) (A) (A)
                 (A) (A) (A) (A) (A) (A) (A) (A) (A) (A) (A) (A)
                 (A) (A) (A) (A) (A) (A) (A) (A) (A) (A) (A) (A)
                 (A) (A) (A) (A) (A) (A) (A) (A) (A) (A) (A) (A)
                 (A) (A) (A) (A) (A) (A) (A) (A) (A) (A) (A) (A)
                 (A) (A) (A) (A) (A) (A) (A) (A) (A) (A) (A) (A)
                 (A) (A) (A) (A) (A) (A) (A) (A) (A) (A) (A) (A)
                 (A) (A) (A) (A) (A) (A) (A) (A) (A) (A) (A) (A)
                 (A) (A) (A) (A) (A) (A) (A) (A) (A) (A) (A) (A)
                 (A) (A) (A) (A) (A) (A) (A) (A) (A) (A) (A) (A)
                 (A) (A) (A) (A) (A) (A) (A) (A) (A) (A) (A) (A)
                 (A) (A) (A) (A) (A) (A) (A) (A) (A) (A) (A) (A)
                 (A) (A) (A) (A) (A) (A) (A) (A) (A) (A) (A) (A)
                 (A) (A) (A) (A) (A) (A) (A) (A) (A) (A) (A) (A)
                 (A) (A) (A) (A) (A) (A) (A) (A) (A) (A) (A) (A)
                 (A) (A) (A) (A) (A) (A) (A) (A) (A) (A) (A) (A)
                 (A) (A) (A) (A) (A) (A) (A) (A) (A) (A) (A) (A)
                 (A) (A) (A) (A) (A) (A) (A) (A) (A) (A) (A) (A)
                 (A) (A) (A) (A) (A) (A) (A) (A) (A) (A) (A) (A)
                 (A) (A) (A) (A) (A) (A) (A) (A) (A) (A) (A) (A)
                 (A) (A) (A) (A) (A) (A) (A) (A) (A) (A) (A) (A)
                 (A) (A) (A) (A) (A) (A) (A) (A) (A) (A) (A) (A)
                 (A) (A) (A) (A) (A) (A) (A) (A) (A) (A) (A) (A)
                 (A) (A) (A) (A) (A) (A) (A) (A) (A) (A) (A) (A)
                 (A) (A) (A) (A) (A) (A) (A) (A) (A) (A) (A) (A)
                 (A) (A) (A) (A) (A) (A) (A) (A) (A) (A) (A) (A)
                 (A) (A) (A) (A) (A) (A) (A) (A) (A) (A) (A) (A)
                 (A) (A) (A) (A) (A) (A) (A) (A) (A) (A) (A) (A)
                 (A) (A) (A) (A) (A) (A) (A) (A) (A) (A) (A) (A)
                 (A) (A) (A) (A) (A) (A) (A) (A) (A) (A) (A) (A)
                 (A) (A) (A) (A) (A) (A) (A) (A) (A) (A) (A) (A)
                 (A) (A) (A) (A) (A) (A) (A) (A) (A) (A) (A) (A)
                 (A) (A) (A) (A) (A) (A) (A) (A) (A) (A) (A) (A)
                 (A) (A) (A) (A) (A) (A) (A) (A) (A) (A) (A) (A)
                 (A) (A) (A) (A) (A) (A) (A) (A) (A) (A) (A) (A)
                 (A) (A) (A) (A) (A) (A) (A) (A) (A) (A) (A) (A)
                 (A) (A) (A) (A) (A) (A) (A) (A) (A) (A) (A) (A)
                 (A) (A) (A) (A) (A) (A) (A) (A) (A) (A) (A) (A)
                 (A) (A) (A) (A) (A) (A) (A) (A) (A) (A) (A) (A)
                 (A) (A) (A) (A) (A) (A) (A) (A) (A) (A) (A) (A)
                 (A) (A) (A) (A) (A) (A) (A) (A) (A) (A) (A) (A)
                 (A) (A) (A) (A) (A) (A) (A) (A) (A) (A) (A) (A)
                 (A) (A) (A) (A) (A) (A) (A) (A) (A) (A) (A) (A)
                 (A) (A) (A) (A) (A) (A) (A) (A) (A) (A) (A) (A)
                 (A) (A) (A) (A) (A) (A) (A) (A) (A) (A) (A) (A)
                 (A) (A) (A) (A) (A) (A) (A) (A) (A) (A) (A) (A)
                 (A) (A) (A) (A) (A) (A) (A) (A) (A) (A) (A) (A)
                 (A) (A) (A) (A) (A) (A) (A) (A) (A) (A) (A) (A)
                 (A) (A) (A) (A) (A) (A) (A) (A) (A) (A) (A) (A)
                 (A) (A) (A) (A) (A) (A) (A) (A) (A) (A) (A) (A)
                 (A) (A) (A) (A) (A) (A) (A) (A) (A) (A) (A) (A)
                 (A) (A) (A) (A) (A) (A) (A) (A) (A) (A) (A) (A)
                 (A) (A) (A) (A) (A) (A) (A) (A) (A) (A) (A) (A)
                 (A) (A) (A) (A) (A) (A) (A)
 The electronic state is 1-A.
 Alpha  occ. eigenvalues --  -19.27109 -19.26547 -19.26422 -19.26276 -19.22454
 Alpha  occ. eigenvalues --  -19.21673 -19.21575 -19.21089 -10.41387 -10.40745
 Alpha  occ. eigenvalues --  -10.40688 -10.40435 -10.32272 -10.32020 -10.31940
 Alpha  occ. eigenvalues --  -10.31893 -10.27528 -10.27513 -10.27238 -10.27186
 Alpha  occ. eigenvalues --  -10.27037 -10.26850 -10.26824 -10.26794  -1.21077
[...]
 Alpha virt. eigenvalues --    0.62632   0.62927   0.63056   0.64598   0.64986
 Alpha virt. eigenvalues --    0.66408   0.66912   0.67456   0.69045   0.69962
 Alpha virt. eigenvalues --    0.70375   0.71611   0.72296   0.72657   0.73124
 Alpha virt. eigenvalues --    0.73527   0.74122   0.74866   0.75268   0.75477
 Alpha virt. eigenvalues --    0.75770   0.76519   0.77038   0.77241   0.78022
 Alpha virt. eigenvalues --    0.78176   0.78867   0.79371   0.80539   0.81292
 Alpha virt. eigenvalues --    0.81525   0.82300   0.82945   0.83667   0.84108
 Alpha virt. eigenvalues --    0.85327   0.85633   0.86156   0.86475   0.86867
 Alpha virt. eigenvalues --    0.87264   0.87660   0.87881   0.88439   0.88469
 Alpha virt. eigenvalues --    0.89394   0.90114   0.90642   0.91662   0.92015
 Alpha virt. eigenvalues --    0.92904   0.93647   0.94243   0.94817   0.95210
 Alpha virt. eigenvalues --    0.95776   0.96117   0.96596   0.97298   0.97635
 Alpha virt. eigenvalues --    0.97895   0.98707   0.98996   0.99454   1.00065
 Alpha virt. eigenvalues --    1.00272   1.01118   1.01671   1.02391   1.02899
 Alpha virt. eigenvalues --    1.04299   1.04333   1.04871   1.05386   1.05902
 Alpha virt. eigenvalues --    1.06465   1.06963   1.07391   1.08154   1.08649
 Alpha virt. eigenvalues --    1.09084   1.09717   1.10098   1.10571   1.11321
 Alpha virt. eigenvalues --    1.11409   1.11623   1.12129   1.12312   1.12653
 Alpha virt. eigenvalues --    1.12763   1.12894   1.14254   1.14696   1.15017
 Alpha virt. eigenvalues --    1.15270   1.16164   1.16396   1.16771   1.16948
 Alpha virt. eigenvalues --    1.17504   1.18145   1.18193   1.18538   1.19082
 Alpha virt. eigenvalues --    1.19778   1.19933   1.20504   1.20886   1.21134
 Alpha virt. eigenvalues --    1.22099   1.22144   1.22500   1.22904   1.23422
 Alpha virt. eigenvalues --    1.24068   1.24573   1.24615   1.24815   1.24957
 Alpha virt. eigenvalues --    1.25447   1.25782   1.26230   1.26325   1.27136
 Alpha virt. eigenvalues --    1.27685   1.27894   1.28490   1.29690   1.30583
 Alpha virt. eigenvalues --    1.30957   1.31590   1.32135   1.32503   1.32754
 Alpha virt. eigenvalues --    1.33244   1.33291   1.33634   1.33930   1.34279
 Alpha virt. eigenvalues --    1.34685   1.35426   1.35909   1.36415   1.37530
 Alpha virt. eigenvalues --    1.38385   1.39188   1.39651   1.40104   1.40216
 Alpha virt. eigenvalues --    1.40697   1.40947   1.41290   1.41663   1.42450
 Alpha virt. eigenvalues --    1.42748   1.43069   1.43860   1.44354   1.44856
 Alpha virt. eigenvalues --    1.45478   1.45981   1.46639   1.47544   1.48298
 Alpha virt. eigenvalues --    1.48393   1.49146   1.50504   1.50933   1.51859
 Alpha virt. eigenvalues --    1.52137   1.52352   1.53465   1.54425   1.54891
 Alpha virt. eigenvalues --    1.56282   1.57177   1.57896   1.58167   1.58546
 Alpha virt. eigenvalues --    1.59725   1.60194   1.61094   1.61691   1.62284
 Alpha virt. eigenvalues --    1.62714   1.63375   1.63841   1.64156   1.65699
 Alpha virt. eigenvalues --    1.67192   1.67856   1.68027   1.70271   1.70767
 Alpha virt. eigenvalues --    1.71585   1.71853   1.72726   1.74018   1.76227
 Alpha virt. eigenvalues --    1.79102   1.80179   1.81273   1.82675   1.83484
 Alpha virt. eigenvalues --    1.84806   1.85794   1.85988   1.86961   1.88735
 Alpha virt. eigenvalues --    1.89498   1.90388   1.91354   2.01813   2.02021
 Alpha virt. eigenvalues --    2.02923   2.04200   2.06976   2.07306   2.07459
 Alpha virt. eigenvalues --    2.08274   2.10077   2.10890   2.11613   2.12589
 Alpha virt. eigenvalues --    2.14815   2.15364   2.16703   2.16784   2.18881
 Alpha virt. eigenvalues --    2.19764   2.20472   2.21570   2.22321   2.22828
 Alpha virt. eigenvalues --    2.24679   2.25651   2.26107   2.27231   2.27601
 Alpha virt. eigenvalues --    2.28292   2.29141   2.30368   2.32460   2.32604
 Alpha virt. eigenvalues --    2.33676   2.34368   2.36233   2.38604   2.40502
 Alpha virt. eigenvalues --    2.41652   2.41955   2.43219   2.43607   2.44173
 Alpha virt. eigenvalues --    2.44708   2.45117   2.45482   2.45643   2.46306
 Alpha virt. eigenvalues --    2.46915   2.51451   2.51754   2.52264   2.52860
 Alpha virt. eigenvalues --    2.53147   2.54370   2.54597   2.54876   2.55444
 Alpha virt. eigenvalues --    2.56093   2.56496   2.56819   2.56927   2.57161
 Alpha virt. eigenvalues --    2.57504   2.57590   2.58306   2.58579   2.59019
 Alpha virt. eigenvalues --    2.59811   2.60334   2.60939   2.61358   2.62965
 Alpha virt. eigenvalues --    2.63713   2.64074   2.64824   2.65116   2.65384
 Alpha virt. eigenvalues --    2.65844   2.66195   2.66719   2.67396   2.67798
 Alpha virt. eigenvalues --    2.68375   2.68852   2.69017   2.69168   2.69518
 Alpha virt. eigenvalues --    2.70219   2.73434   2.74031   2.74483   2.74874
 Alpha virt. eigenvalues --    2.75066   2.75182   2.75675   2.76559   2.77143
 Alpha virt. eigenvalues --    2.77752   2.78412   2.80367   2.81254   2.81574
 Alpha virt. eigenvalues --    2.82538   2.83241   2.83642   2.84749   2.88106
 Alpha virt. eigenvalues --    2.89440   2.92292   2.92766   2.92812   2.93220
 Alpha virt. eigenvalues --    2.93415   2.93858   2.94004   2.94639   2.95661
 Alpha virt. eigenvalues --    2.95740   2.96084   2.96267   2.97170   2.97341
 Alpha virt. eigenvalues --    2.97880   2.98448   2.98603   2.99894   3.00152
 Alpha virt. eigenvalues --    3.00384   3.00521   3.00760   3.01378   3.01633
 Alpha virt. eigenvalues --    3.01970   3.02309   3.02830   3.03378   3.03700
 Alpha virt. eigenvalues --    3.04231   3.04530   3.04974   3.05309   3.05477
 Alpha virt. eigenvalues --    3.05676   3.05865   3.06437   3.07107   3.07823
 Alpha virt. eigenvalues --    3.08363   3.09502   3.10059   3.10492   3.10556
 Alpha virt. eigenvalues --    3.11604   3.12077   3.12439   3.13471   3.13888
 Alpha virt. eigenvalues --    3.14737   3.14988   3.15194   3.15728   3.15799
 Alpha virt. eigenvalues --    3.16161   3.16642   3.17181   3.17449   3.18083
 Alpha virt. eigenvalues --    3.18585   3.18871   3.19068   3.19688   3.19817
 Alpha virt. eigenvalues --    3.20105   3.20479   3.21529   3.21645   3.22013
 Alpha virt. eigenvalues --    3.22487   3.22674   3.23215   3.23936   3.24315
 Alpha virt. eigenvalues --    3.24395   3.25265   3.25741   3.26035   3.26979
 Alpha virt. eigenvalues --    3.27414   3.27705   3.28631   3.28948   3.29530
 Alpha virt. eigenvalues --    3.29685   3.30319   3.30725   3.31358   3.32610
 Alpha virt. eigenvalues --    3.32859   3.33609   3.34552   3.34587   3.34814
 Alpha virt. eigenvalues --    3.35697   3.35868   3.36167   3.36636   3.37938
 Alpha virt. eigenvalues --    3.38329   3.39378   3.39567   3.39748   3.40609
 Alpha virt. eigenvalues --    3.43493   3.44336   3.44821   3.45887   3.46890
 Alpha virt. eigenvalues --    3.47309   3.47705   3.47898   3.47986   3.48525
 Alpha virt. eigenvalues --    3.48715   3.49386   3.50301   3.50663   3.50709
 Alpha virt. eigenvalues --    3.50892   3.51510   3.52155   3.52840   3.53087
 Alpha virt. eigenvalues --    3.55614   3.56380   3.56668   3.57455   3.58455
 Alpha virt. eigenvalues --    3.58972   3.59086   3.59785   3.60498   3.60571
 Alpha virt. eigenvalues --    3.61158   3.61751   3.62277   3.62566   3.63257
 Alpha virt. eigenvalues --    3.63287   3.65409   3.65752   3.66023   3.66233
 Alpha virt. eigenvalues --    3.66767   3.66905   3.67174   3.67397   3.71347
 Alpha virt. eigenvalues --    3.71702   3.71747   3.72210   3.72994   3.73520
 Alpha virt. eigenvalues --    3.73673   3.74214   3.74368   3.74834   3.75446
 Alpha virt. eigenvalues --    3.76651   3.78674   3.79045   3.79095   3.79546
 Alpha virt. eigenvalues --    3.79663   3.79953   3.80181   3.80418   3.81019
 Alpha virt. eigenvalues --    3.81693   3.82137   3.82906   3.83661   3.83686
 Alpha virt. eigenvalues --    3.83904   3.84618   3.84752   3.85706   3.85965
 Alpha virt. eigenvalues --    3.86517   3.87318   3.87481   3.88159   3.90006
 Alpha virt. eigenvalues --    3.90352   3.90769   3.91981   3.92371   3.95623
 Alpha virt. eigenvalues --    3.95866   3.96279   3.96656   3.97415   3.98102
 Alpha virt. eigenvalues --    3.98146   3.98591   3.99318   4.00005   4.00140
 Alpha virt. eigenvalues --    4.00351   4.01899   4.02156   4.02293   4.02537
 Alpha virt. eigenvalues --    4.02804   4.03336   4.03729   4.04907   4.06550
 Alpha virt. eigenvalues --    4.06835   4.06973   4.07427   4.07574   4.07928
 Alpha virt. eigenvalues --    4.08730   4.09536   4.09830   4.10372   4.10810
 Alpha virt. eigenvalues --    4.11320   4.12107   4.13568   4.13753   4.13970
 Alpha virt. eigenvalues --    4.14307   4.14654   4.15237   4.15470   4.15907
 Alpha virt. eigenvalues --    4.15994   4.16693   4.17245   4.17626   4.18918
 Alpha virt. eigenvalues --    4.19916   4.20015   4.21513   4.21987   4.22522
 Alpha virt. eigenvalues --    4.23656   4.25162   4.25830   4.26358   4.26797
 Alpha virt. eigenvalues --    4.27511   4.27882   4.27985   4.28541   4.28901
 Alpha virt. eigenvalues --    4.29365   4.30106   4.30733   4.31436   4.31887
 Alpha virt. eigenvalues --    4.32572   4.32979   4.34947   4.35281   4.35935
 Alpha virt. eigenvalues --    4.36296   4.36500   4.37871   4.38029   4.38573
 Alpha virt. eigenvalues --    4.38700   4.39130   4.40325   4.41400   4.41714
 Alpha virt. eigenvalues --    4.42220   4.42428   4.43027   4.46799   4.47211
 Alpha virt. eigenvalues --    4.48859   4.49781   4.50572   4.51588   4.52346
 Alpha virt. eigenvalues --    4.52749   4.55143   4.55912   4.56395   4.56543
 Alpha virt. eigenvalues --    4.58720   4.59140   4.59379   4.60301   4.63749
 Alpha virt. eigenvalues --    4.64453   4.65874   4.66300   4.67176   4.67520
 Alpha virt. eigenvalues --    4.67778   4.68639   4.71557   4.72082   4.72969
 Alpha virt. eigenvalues --    4.74165   4.76245   4.76345   4.76536   4.77123
 Alpha virt. eigenvalues --    4.82812   4.83099   4.83288   4.83848   4.84034
 Alpha virt. eigenvalues --    4.84057   4.84449   4.84599   4.90407   4.90694
 Alpha virt. eigenvalues --    4.90834   4.91441   4.92341   4.92905   4.93165
 Alpha virt. eigenvalues --    4.93389   4.93544   4.93879   4.93925   4.94525
 Alpha virt. eigenvalues --    4.96356   4.97581   4.97762   4.98631   4.99063
 Alpha virt. eigenvalues --    4.99816   5.00180   5.00601   5.03760   5.03896
 Alpha virt. eigenvalues --    5.04447   5.04812   5.07615   5.08488   5.09579
 Alpha virt. eigenvalues --    5.10277   5.13395   5.14028   5.14785   5.15003
 Alpha virt. eigenvalues --    5.17846   5.18050   5.18588   5.19221   5.20664
 Alpha virt. eigenvalues --    5.21058   5.21479   5.21893   5.22012   5.22156
 Alpha virt. eigenvalues --    5.22716   5.23700   5.24068   5.24472   5.25004
 Alpha virt. eigenvalues --    5.25248   5.25872   5.26226   5.26549   5.27037
 Alpha virt. eigenvalues --    5.27540   5.27636   5.28167   5.28505   5.28717
 Alpha virt. eigenvalues --    5.29109   5.29522   5.30070   5.32853   5.33082
 Alpha virt. eigenvalues --    5.33914   5.34908   5.36643   5.37403   5.38609
 Alpha virt. eigenvalues --    5.39924   5.42665   5.43032   5.43990   5.45831
 Alpha virt. eigenvalues --    5.48167   5.48546   5.48916   5.49322   5.51717
 Alpha virt. eigenvalues --    5.51855   5.52533   5.52839   5.52965   5.54033
 Alpha virt. eigenvalues --    5.54568   5.55124   5.56386   5.56610   5.57321
 Alpha virt. eigenvalues --    5.57439   5.63341   5.63433   5.64002   5.64802
 Alpha virt. eigenvalues --    5.65817   5.66152   5.66829   5.67849   5.69076
 Alpha virt. eigenvalues --    5.69397   5.70464   5.71405   5.81208   5.81261
 Alpha virt. eigenvalues --    5.81377   5.81682   5.93199   5.93414   5.93520
 Alpha virt. eigenvalues --    5.94027   5.95748   5.96155   5.97599   5.98107
 Alpha virt. eigenvalues --    6.00423   6.00671   6.00922   6.01657   6.03676
 Alpha virt. eigenvalues --    6.03699   6.04090   6.05352   6.05945   6.06566
 Alpha virt. eigenvalues --    6.07497   6.08883   6.14828   6.15297   6.16452
 Alpha virt. eigenvalues --    6.17072   6.23205   6.23456   6.23551   6.23898
 Alpha virt. eigenvalues --    6.25561   6.26475   6.26627   6.27527   6.40692
 Alpha virt. eigenvalues --    6.40903   6.41853   6.42396   6.43023   6.43563
 Alpha virt. eigenvalues --    6.44721   6.47864   6.48442   6.49102   6.50220
 Alpha virt. eigenvalues --    6.52449   6.77492   6.77584   6.77896   6.78124
 Alpha virt. eigenvalues --    6.80969   6.81860   6.82585   6.83016   6.87555
 Alpha virt. eigenvalues --    6.87677   6.88120   6.88910   6.89748   6.90617
 Alpha virt. eigenvalues --    6.92137   6.92488   6.96536   6.96596   6.96645
 Alpha virt. eigenvalues --    6.97213   7.07895   7.08440   7.09900   7.10073
 Alpha virt. eigenvalues --    7.11965   7.13114   7.14996   7.17932   7.22093
 Alpha virt. eigenvalues --    7.22472   7.23314   7.24099   7.46787   7.47416
 Alpha virt. eigenvalues --    7.48545   7.49323   9.33612   9.42659   9.57670
 Alpha virt. eigenvalues --    9.76635  10.03889  11.26531  11.27934  11.32146
 Alpha virt. eigenvalues --   11.35153  11.38001  11.40022  11.40819  11.49257
 Alpha virt. eigenvalues --   12.19079  12.23522  12.25553  12.45001  12.55201
 Alpha virt. eigenvalues --   12.57951  12.62241  12.65667  13.05220  13.06399
 Alpha virt. eigenvalues --   13.09281  13.15427  18.91968  19.26829
          Condensed to atoms (all electrons):
 Mulliken charges:
               1
     1  Pb   1.084798
     2  Br  -0.636494
     3  Br  -0.637127
     4  O   -0.424204
     5  C    0.366452
     6  C   -0.228249
     7  O   -0.214960
     8  C   -0.186742
     9  C    0.007234
    10  H    0.116710
    11  H    0.110863
    12  H    0.119630
    13  H    0.115801
    14  H    0.139585
    15  H    0.143708
    16  O   -0.404377
    17  C    0.345301
    18  C   -0.211380
    19  O   -0.212666
    20  C   -0.187237
    21  C    0.006778
    22  H    0.115548
    23  H    0.106381
    24  H    0.119704
    25  H    0.116339
    26  H    0.104241
    27  H    0.140391
    28  O   -0.449884
    29  C    0.385871
    30  C   -0.184175
    31  O   -0.217631
    32  C   -0.188418
    33  C    0.004755
    34  H    0.118839
    35  H    0.116657
    36  H    0.123051
    37  H    0.119271
    38  H    0.130581
    39  H    0.095539
    40  O   -0.422324
    41  C    0.357184
    42  C   -0.247204
    43  O   -0.211655
    44  C   -0.183087
    45  C    0.006511
    46  H    0.115930
    47  H    0.110739
    48  H    0.119513
    49  H    0.115157
    50  H    0.125885
    51  H    0.142868
 Sum of Mulliken charges =  -0.00000
 Mulliken charges with hydrogens summed into heavy atoms:
               1
     1  Pb   1.084798
     2  Br  -0.636494
     3  Br  -0.637127
     4  O   -0.424204
     5  C    0.366452
     6  C    0.055045
     7  O   -0.214960
     8  C    0.048689
     9  C    0.234806
    16  O   -0.404377
    17  C    0.345301
    18  C    0.033251
    19  O   -0.212666
    20  C    0.048806
    21  C    0.228707
    28  O   -0.449884
    29  C    0.385871
    30  C    0.041945
    31  O   -0.217631
    32  C    0.053903
    33  C    0.240251
    40  O   -0.422324
    41  C    0.357184
    42  C    0.021549
    43  O   -0.211655
    44  C    0.051583
    45  C    0.233180
 Electronic spatial extent (au):  <R**2>=          13895.0572
 Charge=              0.0000 electrons
 Dipole moment (field-independent basis, Debye):
    X=             -6.2381    Y=             15.8880    Z=              0.8824  Tot=             17.0916
 Quadrupole moment (field-independent basis, Debye-Ang):
   XX=           -102.1174   YY=           -182.4956   ZZ=           -186.6707
   XY=             -2.9547   XZ=            -16.0413   YZ=             -4.4370
 Traceless Quadrupole moment (field-independent basis, Debye-Ang):
   XX=             54.9772   YY=            -25.4010   ZZ=            -29.5762
   XY=             -2.9547   XZ=            -16.0413   YZ=             -4.4370
 Octapole moment (field-independent basis, Debye-Ang**2):
  XXX=            119.5745  YYY=            113.7135  ZZZ=             52.5169  XYY=             32.7666
  XXY=            -51.5045  XXZ=            -23.6132  XZZ=           -123.5990  YZZ=            -31.3349
  YYZ=             10.3670  XYZ=             10.0598
 Hexadecapole moment (field-independent basis, Debye-Ang**3):
 XXXX=          -7244.9941 YYYY=          -4208.2838 ZZZZ=          -3832.1569 XXXY=           -103.3248
 XXXZ=             35.3330 YYYX=             14.7260 YYYZ=            -31.9128 ZZZX=            -66.9047
 ZZZY=             39.9972 XXYY=          -2632.4793 XXZZ=          -1875.0304 YYZZ=          -1563.8824
 XXYZ=            -78.1736 YYXZ=              3.6734 ZZXY=             84.2898
 N-N= 2.412709358350D+03 E-N=-7.749379895471D+03  KE= 1.227013878448D+03
 Unable to Open any file for archive entry.
 1\1\GINC-MPCL074\SP\RCAM-B3LYP TD-FC\Gen\C16H24Br2O8Pb1\EDBA4025\11-No
 v-2020\0\\# cam-b3lyp/gen pseudo=read TD=NStates=10 Geom=Check Guess=R
 ead empiricaldispersion=gd3bj SCRF=(read)\\PbBr2_gbl\\0,1\Pb,0,-0.3843
 44645,-0.3387267589,0.2301559322\Br,0,-1.4018032038,-1.3457696821,-2.2
 741898554\Br,0,1.3867422348,-2.6512407657,0.7802199664\O,0,-1.52976133
 42,2.0092445817,-0.3468905812\C,0,-1.038636641,3.139523086,-0.27067842
 64\C,0,0.3785610547,3.5459104128,0.061527806\O,0,-1.808086964,4.221878
 5779,-0.5088328786\C,0,0.237838536,5.031506554,0.406845164\C,0,-0.9900
 75022,5.4367595499,-0.4146983557\H,0,-1.6228533363,6.2138913493,0.0492
 719778\H,0,-0.733131516,5.7390908994,-1.4504166082\H,0,1.1264693723,5.
 6349804069,0.1479935411\H,0,0.0327396123,5.1572953521,1.4882810052\H,0
 ,0.9918017758,3.3622227787,-0.845959678\H,0,0.785833118,2.8948900918,0
 .856955619\O,0,1.2013527883,0.9925460274,2.0941665587\C,0,2.3727353299
 ,0.6651554919,2.2903515802\C,0,3.5249619131,0.5968482916,1.3096840156\
 O,0,2.7780577918,0.2815430634,3.5229455046\C,0,4.7546876011,0.55166863
 2,2.2208913185\C,0,4.1871565425,-0.118513295,3.4763476664\H,0,4.648175
 4154,0.2084320601,4.4251991379\H,0,4.2102743978,-1.2257960319,3.414766
 7992\H,0,5.6036890648,-0.0143466115,1.7968039597\H,0,5.1000266111,1.57
 77293048,2.4564741655\H,0,3.3915945347,-0.3523000953,0.7446875915\H,0,
 3.4859482475,1.4322800878,0.588789074\O,0,1.3541289688,0.8264967714,-1
 .1923200462\C,0,2.1868869416,0.4068850897,-2.0057857001\C,0,2.38669725
 87,-0.9869129465,-2.5443733854\O,0,3.0801610683,1.2659410229,-2.529929
 3213\C,0,3.7958472206,-0.9224727621,-3.1431559086\C,0,3.9255379009,0.5
 602348149,-3.5039142248\H,0,4.9428549863,0.9769910014,-3.4027603336\H,
 0,3.5256627653,0.7959665688,-4.5107806026\H,0,3.9355132969,-1.57680137
 53,-4.0221463398\H,0,4.548710994,-1.1975209879,-2.3781532933\H,0,1.592
 5794101,-1.1568752267,-3.3034993268\H,0,2.2345891718,-1.7341663979,-1.
 7413185435\O,0,-2.6629424588,-1.1249832967,1.3197387015\C,0,-3.8060992
 213,-0.7830361384,1.0039617811\C,0,-4.2642522898,0.1361669078,-0.10655
 72246\O,0,-4.8627661519,-1.2689191887,1.6907322148\C,0,-5.7085994415,0
 .4611912261,0.2870396886\C,0,-6.1084628064,-0.7807047873,1.0899049773\
 H,0,-6.8121549029,-0.5897551274,1.9194296531\H,0,-6.5043137693,-1.5954
 749775,0.4497509997\H,0,-6.3780097675,0.6300265862,-0.5756503627\H,0,-
 5.7376139303,1.3605699726,0.9334391606\H,0,-4.1935267438,-0.4460995236
 ,-1.051587795\H,0,-3.5835617797,1.0017494153,-0.2104467683\\Version=ES
 64L-G16RevC.01\State=1-A\HF=-1255.8996686\RMSD=8.188e-09\PG=C01 [X(C16
 H24Br2O8Pb1)]\\@
 The archive entry for this job was punched.


 MICHAEL FARADAY, ASKED BY A POLITICIAN WHAT GOOD
 HIS ELECTRICAL DISCOVERIES WERE, REPLIED 
 "AT PRESENT I DO NOT KNOW, BUT ONE DAY YOU WILL BE
 ABLE TO TAX THEM."
 Job cpu time:       0 days 16 hours 26 minutes 37.1 seconds.
 Elapsed time:       0 days  2 hours 20 minutes 59.3 seconds.
 File lengths (MBytes):  RWF=   5729 Int=      0 D2E=      0 Chk=    536 Scr=      1
 Normal termination of Gaussian 16 at Wed Nov 11 20:49:04 2020.
