 Entering Gaussian System, Link 0=g16
 Input=03-PbBr2_nmp_22925391.com
 Output=03-PbBr2_nmp_22925391.log
 Initial command:
 /cm/shared/uniol/software/gaussian/g16.c01/g16/l1.exe "/scratch/22925391_edba4025/Gau-31833.inp" -scrdir="/scratch/22925391_edba4025/"
 Entering Link 1 = /cm/shared/uniol/software/gaussian/g16.c01/g16/l1.exe PID=     31834.
  
 Copyright (c) 1988-2019, Gaussian, Inc.  All Rights Reserved.
  
 This is part of the Gaussian(R) 16 program.  It is based on
 the Gaussian(R) 09 system (copyright 2009, Gaussian, Inc.),
 the Gaussian(R) 03 system (copyright 2003, Gaussian, Inc.),
 the Gaussian(R) 98 system (copyright 1998, Gaussian, Inc.),
 the Gaussian(R) 94 system (copyright 1995, Gaussian, Inc.),
 the Gaussian 92(TM) system (copyright 1992, Gaussian, Inc.),
 the Gaussian 90(TM) system (copyright 1990, Gaussian, Inc.),
 the Gaussian 88(TM) system (copyright 1988, Gaussian, Inc.),
 the Gaussian 86(TM) system (copyright 1986, Carnegie Mellon
 University), and the Gaussian 82(TM) system (copyright 1983,
 Carnegie Mellon University). Gaussian is a federally registered
 trademark of Gaussian, Inc.
  
 This software contains proprietary and confidential information,
 including trade secrets, belonging to Gaussian, Inc.
  
 This software is provided under written license and may be
 used, copied, transmitted, or stored only in accord with that
 written license.
  
 The following legend is applicable only to US Government
 contracts under FAR:
  
                    RESTRICTED RIGHTS LEGEND
  
 Use, reproduction and disclosure by the US Government is
 subject to restrictions as set forth in subparagraphs (a)
 and (c) of the Commercial Computer Software - Restricted
 Rights clause in FAR 52.227-19.
  
 Gaussian, Inc.
 340 Quinnipiac St., Bldg. 40, Wallingford CT 06492
  
  
 ---------------------------------------------------------------
 Warning -- This program may not be used in any manner that
 competes with the business of Gaussian, Inc. or will provide
 assistance to any competitor of Gaussian, Inc.  The licensee
 of this program is prohibited from giving any competitor of
 Gaussian, Inc. access to this program.  By using this program,
 the user acknowledges that Gaussian, Inc. is engaged in the
 business of creating and licensing software in the field of
 computational chemistry and represents and warrants to the
 licensee that it is not a competitor of Gaussian, Inc. and that
 it will not use this program in any manner prohibited above.
 ---------------------------------------------------------------
  

 Cite this work as:
 Gaussian 16, Revision C.01,
 M. J. Frisch, G. W. Trucks, H. B. Schlegel, G. E. Scuseria, 
 M. A. Robb, J. R. Cheeseman, G. Scalmani, V. Barone, 
 G. A. Petersson, H. Nakatsuji, X. Li, M. Caricato, A. V. Marenich, 
 J. Bloino, B. G. Janesko, R. Gomperts, B. Mennucci, H. P. Hratchian, 
 J. V. Ortiz, A. F. Izmaylov, J. L. Sonnenberg, D. Williams-Young, 
 F. Ding, F. Lipparini, F. Egidi, J. Goings, B. Peng, A. Petrone, 
 T. Henderson, D. Ranasinghe, V. G. Zakrzewski, J. Gao, N. Rega, 
 G. Zheng, W. Liang, M. Hada, M. Ehara, K. Toyota, R. Fukuda, 
 J. Hasegawa, M. Ishida, T. Nakajima, Y. Honda, O. Kitao, H. Nakai, 
 T. Vreven, K. Throssell, J. A. Montgomery, Jr., J. E. Peralta, 
 F. Ogliaro, M. J. Bearpark, J. J. Heyd, E. N. Brothers, K. N. Kudin, 
 V. N. Staroverov, T. A. Keith, R. Kobayashi, J. Normand, 
 K. Raghavachari, A. P. Rendell, J. C. Burant, S. S. Iyengar, 
 J. Tomasi, M. Cossi, J. M. Millam, M. Klene, C. Adamo, R. Cammi, 
 J. W. Ochterski, R. L. Martin, K. Morokuma, O. Farkas, 
 J. B. Foresman, and D. J. Fox, Gaussian, Inc., Wallingford CT, 2019.
 
 ******************************************
 Gaussian 16:  ES64L-G16RevC.01  3-Jul-2019
                25-Nov-2020 
 ******************************************
 %oldChk=01-PbBr2_nmp
 %chk=03-PbBr2_nmp
 %mem=16GB
 %NProcShared=7
 Will use up to    7 processors via shared memory.
 Copying data from "01-PbBr2_nmp.chk" to current chk file "03-PbBr2_nmp.chk"
 IOpt=  2 FromEx=T IUOpen= 4 IOptOp= 5 NList=   0 IFRang= 0 IUIn= 4 IUOut= 2.
 ----------------------------------------------------------------------
 # cam-b3lyp/gen pseudo=read TD=NStates=10 Geom=Check Guess=Read empiri
 caldispersion=gd3bj SCRF=(read)
 ----------------------------------------------------------------------
 1/29=2,38=1,40=2,172=1/1;
 2/12=2,40=1/2;
 3/5=7,11=9,14=-4,16=1,17=8,25=1,30=1,70=2203,74=-40,116=-2,124=41/1,2,3,8;
 4/5=1/1;
 5/5=2,38=6/2;
 8/6=1,10=1,108=10/1;
 9/41=10,42=1,70=2/14;
 6/7=2,8=2,9=2,10=2/1;
 99/5=1,9=1/99;
 ---------
 PbBr2_nmp
 ---------
 Structure from the checkpoint file:  "03-PbBr2_nmp.chk"
 Charge =  0 Multiplicity = 1
 Redundant internal coordinates found in file.  (old form).
 Pb,0,-0.422643749,-0.8237867087,-0.2422237778
 Br,0,-2.0091694631,-2.9119993116,-1.7244350741
 Br,0,-1.2639461553,-1.0898091255,2.6846383984
 O,0,0.3092374041,0.3111339279,-2.3593531608
 C,0,1.288114294,1.099357178,-2.4180849829
 C,0,2.7556737898,0.721807384,-2.4780538353
 N,0,1.187715174,2.4507241771,-2.4027056449
 C,0,3.4657409946,2.0296394283,-2.8616794538
 C,0,2.482086246,3.1339088223,-2.4222489455
 C,0,-0.0613959756,3.164079461,-2.2296349813
 H,0,-0.8547884601,2.4280623781,-2.0041783539
 H,0,0.0259401236,3.8786218495,-1.3852183327
 H,0,-0.3183893846,3.7390168489,-3.1432709655
 H,0,3.0224141692,0.3649805526,-1.4610977601
 H,0,2.9191795991,-0.1155943645,-3.1807828157
 H,0,4.4559947722,2.1475157403,-2.3853385405
 H,0,3.6079012163,2.0752109736,-3.959016219
 H,0,2.4535492324,3.9955404422,-3.1185071641
 H,0,2.7047197088,3.5265267996,-1.404528341
 O,0,1.5328671671,0.6841854621,0.5698602328
 C,0,1.4304646847,1.8232646948,1.0923799738
 C,0,0.1649286031,2.5017607831,1.5767118598
 N,0,2.4875038984,2.6372663331,1.3433387876
 C,0,0.5935405215,3.9574362282,1.8141644379
 C,0,2.1127327612,3.8626252283,2.0545710283
 C,0,3.8693324832,2.2373417213,1.1691363929
 H,0,3.8839377479,1.258822223,0.6560120705
 H,0,4.375574372,2.1430252665,2.1529673178
 H,0,4.4183128312,2.9849750187,0.5619825717
 H,0,-0.143474107,1.9799371317,2.5088578046
 H,0,-0.6577820113,2.3607988602,0.850216598
 H,0,0.0698493516,4.4381763805,2.6597056863
 H,0,0.3994454867,4.5635179345,0.9064130024
 H,0,2.675811596,4.7270195737,1.650721034
 H,0,2.3673139816,3.7616214496,3.1334187313
 O,0,-2.1270403041,1.1031000908,-0.4180725354
 C,0,-3.3394828354,1.0501605499,-0.0767253378
 C,0,-4.1458827932,-0.1889464153,0.2552122428
 N,0,-4.1273173385,2.1403360504,0.0830359703
 C,0,-5.598790373,0.3099871718,0.2664870686
 C,0,-5.4691886853,1.8140831759,0.5733522271
 C,0,-3.6533913276,3.5052632388,-0.0146066179
 H,0,-2.6229631879,3.4896959869,-0.4118134078
 H,0,-3.654383381,3.9939041618,0.98257513
 H,0,-4.3038988525,4.0912267762,-0.69442094
 H,0,-3.7945363196,-0.5389294999,1.2516329786
 H,0,-3.9312314032,-1.0030055568,-0.4644395985
 H,0,-6.2367318287,-0.2093093045,1.0040447974
 H,0,-6.0522316931,0.1743415424,-0.735280172
 H,0,-6.2272501094,2.4353554811,0.0565468434
 H,0,-5.5323270508,2.0341227728,1.6628295884
 O,0,1.6895302164,-2.2099799982,-0.3600276493
 C,0,2.6072027167,-2.0991266559,0.4941141001
 C,0,2.4616986186,-2.0507088429,2.0029080063
 N,0,3.9281018148,-2.0578122765,0.1859298029
 C,0,3.8378378714,-1.5755882284,2.4889852546
 C,0,4.7961148672,-2.0143867754,1.3648810591
 C,0,4.4492014064,-2.2603148072,-1.1502180512
 H,0,3.5916642282,-2.3370937869,-1.8422348908
 H,0,5.0470141297,-3.1945646187,-1.1966983178
 H,0,5.0970056492,-1.412114323,-1.4503927489
 H,0,2.2307634754,-3.0850558354,2.3396648677
 H,0,1.6079828009,-1.4136024081,2.2999702583
 H,0,4.1295722524,-1.9936071644,3.4690898928
 H,0,3.8428417385,-0.471014943,2.5710795253
 H,0,5.630817135,-1.3043969311,1.1985054757
 H,0,5.2354156578,-3.0210693698,1.5468875993
 Recover connectivity data from disk.
                           ----------------------------
                           !    Current Parameters    !
                           ! (Angstroms and Degrees)  !
 --------------------------                            --------------------------
 ! Name  Definition              Value                                          !
 --------------------------------------------------------------------------------
 ! R1    R(1,2)                  3.0124                                         !
 ! R2    R(1,3)                  3.057                                          !
 ! R3    R(1,4)                  2.5112                                         !
 ! R4    R(1,20)                 2.5995                                         !
 ! R5    R(1,36)                 2.5785                                         !
 ! R6    R(1,52)                 2.5292                                         !
 ! R7    R(4,5)                  1.2582                                         !
 ! R8    R(5,6)                  1.5165                                         !
 ! R9    R(5,7)                  1.3552                                         !
 ! R10   R(6,8)                  1.5368                                         !
 ! R11   R(6,14)                 1.1103                                         !
 ! R12   R(6,15)                 1.1054                                         !
 ! R13   R(7,9)                  1.4637                                         !
 ! R14   R(7,10)                 1.4488                                         !
 ! R15   R(8,9)                  1.5428                                         !
 ! R16   R(8,16)                 1.1052                                         !
 ! R17   R(8,17)                 1.1074                                         !
 ! R18   R(9,18)                 1.1082                                         !
 ! R19   R(9,19)                 1.1133                                         !
 ! R20   R(10,11)                1.1055                                         !
 ! R21   R(10,12)                1.1096                                         !
 ! R22   R(10,13)                1.1097                                         !
 ! R23   R(11,36)                2.4269                                         !
 ! R24   R(12,33)                2.4208                                         !
 ! R25   R(14,20)                2.5388                                         !
 ! R26   R(14,27)                2.4542                                         !
 ! R27   R(15,59)                2.6794                                         !
 ! R28   R(20,21)                1.2574                                         !
 ! R29   R(21,22)                1.5154                                         !
 ! R30   R(21,23)                1.3575                                         !
 ! R31   R(22,24)                1.5359                                         !
 ! R32   R(22,30)                1.1119                                         !
 ! R33   R(22,31)                1.1066                                         !
 ! R34   R(23,25)                1.4655                                         !
 ! R35   R(23,26)                1.449                                          !
 ! R36   R(24,25)                1.541                                          !
 ! R37   R(24,32)                1.1047                                         !
 ! R38   R(24,33)                1.1086                                         !
 ! R39   R(25,34)                1.1078                                         !
 ! R40   R(25,35)                1.1131                                         !
 ! R41   R(26,27)                1.105                                          !
 ! R42   R(26,28)                1.1105                                         !
 ! R43   R(26,29)                1.1086                                         !
 ! R44   R(27,65)                2.581                                          !
 ! R45   R(31,36)                2.3128                                         !
 ! R46   R(36,37)                1.2607                                         !
 ! R47   R(37,38)                1.5152                                         !
 ! R48   R(37,39)                1.3545                                         !
 ! R49   R(38,40)                1.5362                                         !
 ! R50   R(38,46)                1.113                                          !
 ! R51   R(38,47)                1.1075                                         !
 ! R52   R(39,41)                1.4654                                         !
 ! R53   R(39,42)                1.4482                                         !
 ! R54   R(40,41)                1.5405                                         !
 ! R55   R(40,48)                1.1048                                         !
 ! R56   R(40,49)                1.1079                                         !
 ! R57   R(41,50)                1.108                                          !
 ! R58   R(41,51)                1.1133                                         !
 ! R59   R(42,43)                1.1044                                         !
 ! R60   R(42,44)                1.1105                                         !
 ! R61   R(42,45)                1.1084                                         !
 ! R62   R(52,53)                1.2586                                         !
 ! R63   R(53,54)                1.5166                                         !
 ! R64   R(53,55)                1.357                                          !
 ! R65   R(54,56)                1.5349                                         !
 ! R66   R(54,62)                1.112                                          !
 ! R67   R(54,63)                1.1059                                         !
 ! R68   R(55,57)                1.4647                                         !
 ! R69   R(55,58)                1.4484                                         !
 ! R70   R(56,57)                1.5409                                         !
 ! R71   R(56,64)                1.1047                                         !
 ! R72   R(56,65)                1.1076                                         !
 ! R73   R(57,66)                1.1084                                         !
 ! R74   R(57,67)                1.1133                                         !
 ! R75   R(58,59)                1.1046                                         !
 ! R76   R(58,60)                1.1101                                         !
 ! R77   R(58,61)                1.1087                                         !
 ! A1    A(2,1,3)              105.4161                                         !
 ! A2    A(2,1,4)               92.9785                                         !
 ! A3    A(2,1,20)             162.1799                                         !
 ! A4    A(2,1,36)              97.8361                                         !
 ! A5    A(2,1,52)              92.1192                                         !
 ! A6    A(3,1,4)              157.9327                                         !
 ! A7    A(3,1,20)              87.6162                                         !
 ! A8    A(3,1,36)              87.043                                          !
 ! A9    A(3,1,52)             103.1049                                         !
 ! A10   A(4,1,20)              77.4059                                         !
 ! A11   A(4,1,36)              78.312                                          !
 ! A12   A(4,1,52)              87.9964                                         !
 ! A13   A(20,1,36)             94.8789                                         !
 ! A14   A(20,1,52)             72.7981                                         !
 ! A15   A(36,1,52)            163.418                                          !
 ! A16   A(1,4,5)              123.3161                                         !
 ! A17   A(4,5,6)              126.7826                                         !
 ! A18   A(4,5,7)              124.5107                                         !
 ! A19   A(6,5,7)              108.687                                          !
 ! A20   A(5,6,8)              104.1894                                         !
 ! A21   A(5,6,14)             106.0385                                         !
 ! A22   A(5,6,15)             110.9094                                         !
 ! A23   A(8,6,14)             113.0258                                         !
 ! A24   A(8,6,15)             114.6873                                         !
 ! A25   A(14,6,15)            107.6562                                         !
 ! A26   A(5,7,9)              113.5634                                         !
 ! A27   A(5,7,10)             123.7941                                         !
 ! A28   A(9,7,10)             122.2885                                         !
 ! A29   A(6,8,9)              104.0893                                         !
 ! A30   A(6,8,16)             113.4016                                         !
 ! A31   A(6,8,17)             109.979                                          !
 ! A32   A(9,8,16)             111.8506                                         !
 ! A33   A(9,8,17)             109.5499                                         !
 ! A34   A(16,8,17)            107.9188                                         !
 ! A35   A(7,9,8)              103.5057                                         !
 ! A36   A(7,9,18)             110.3972                                         !
 ! A37   A(7,9,19)             109.222                                          !
 ! A38   A(8,9,18)             113.2037                                         !
 ! A39   A(8,9,19)             112.6623                                         !
 ! A40   A(18,9,19)            107.7763                                         !
 ! A41   A(7,10,11)            108.3799                                         !
 ! A42   A(7,10,12)            109.8836                                         !
 ! A43   A(7,10,13)            110.8808                                         !
 ! A44   A(11,10,12)           109.2709                                         !
 ! A45   A(11,10,13)           110.2839                                         !
 ! A46   A(12,10,13)           108.1287                                         !
 ! A47   A(10,11,36)           150.8126                                         !
 ! A48   A(10,12,33)           156.1686                                         !
 ! A49   A(6,14,20)            123.4615                                         !
 ! A50   A(6,14,27)            139.2375                                         !
 ! A51   A(20,14,27)            58.0003                                         !
 ! A52   A(6,15,59)            110.3435                                         !
 ! A53   A(1,20,14)             96.8065                                         !
 ! A54   A(1,20,21)            126.4466                                         !
 ! A55   A(14,20,21)           119.6118                                         !
 ! A56   A(20,21,22)           127.3315                                         !
 ! A57   A(20,21,23)           123.8215                                         !
 ! A58   A(22,21,23)           108.8264                                         !
 ! A59   A(21,22,24)           103.9279                                         !
 ! A60   A(21,22,30)           106.8245                                         !
 ! A61   A(21,22,31)           110.7331                                         !
 ! A62   A(24,22,30)           113.1153                                         !
 ! A63   A(24,22,31)           115.4484                                         !
 ! A64   A(30,22,31)           106.5225                                         !
 ! A65   A(21,23,25)           113.0756                                         !
 ! A66   A(21,23,26)           123.6977                                         !
 ! A67   A(25,23,26)           122.2058                                         !
 ! A68   A(22,24,25)           103.9404                                         !
 ! A69   A(22,24,32)           113.4838                                         !
 ! A70   A(22,24,33)           110.041                                          !
 ! A71   A(25,24,32)           112.007                                          !
 ! A72   A(25,24,33)           109.5103                                         !
 ! A73   A(32,24,33)           107.8077                                         !
 ! A74   A(23,25,24)           103.1695                                         !
 ! A75   A(23,25,34)           110.2117                                         !
 ! A76   A(23,25,35)           109.6347                                         !
 ! A77   A(24,25,34)           113.3403                                         !
 ! A78   A(24,25,35)           112.4745                                         !
 ! A79   A(34,25,35)           107.9315                                         !
 ! A80   A(23,26,27)           108.23                                           !
 ! A81   A(23,26,28)           110.5896                                         !
 ! A82   A(23,26,29)           110.6065                                         !
 ! A83   A(27,26,28)           109.2797                                         !
 ! A84   A(27,26,29)           109.654                                          !
 ! A85   A(28,26,29)           108.4667                                         !
 ! A86   A(14,27,26)           135.9271                                         !
 ! A87   A(14,27,65)           112.978                                          !
 ! A88   A(26,27,65)           104.4032                                         !
 ! A89   A(22,31,36)           154.369                                          !
 ! A90   A(12,33,24)           130.3513                                         !
 ! A91   A(1,36,11)             96.0868                                         !
 ! A92   A(1,36,31)             87.0801                                         !
 ! A93   A(1,36,37)            125.8634                                         !
 ! A94   A(11,36,31)            74.2453                                         !
 ! A95   A(11,36,37)           134.7527                                         !
 ! A96   A(31,36,37)           119.0331                                         !
 ! A97   A(36,37,38)           127.2644                                         !
 ! A98   A(36,37,39)           123.8843                                         !
 ! A99   A(38,37,39)           108.8324                                         !
 ! A100  A(37,38,40)           103.8482                                         !
 ! A101  A(37,38,46)           106.575                                          !
 ! A102  A(37,38,47)           110.8294                                         !
 ! A103  A(40,38,46)           113.2103                                         !
 ! A104  A(40,38,47)           115.2633                                         !
 ! A105  A(46,38,47)           106.8223                                         !
 ! A106  A(37,39,41)           113.1337                                         !
 ! A107  A(37,39,42)           124.076                                          !
 ! A108  A(41,39,42)           122.1452                                         !
 ! A109  A(38,40,41)           103.8271                                         !
 ! A110  A(38,40,48)           113.4746                                         !
 ! A111  A(38,40,49)           109.9175                                         !
 ! A112  A(41,40,48)           111.9938                                         !
 ! A113  A(41,40,49)           109.5158                                         !
 ! A114  A(48,40,49)           108.0438                                         !
 ! A115  A(39,41,40)           103.1648                                         !
 ! A116  A(39,41,50)           110.2173                                         !
 ! A117  A(39,41,51)           109.5949                                         !
 ! A118  A(40,41,50)           113.3891                                         !
 ! A119  A(40,41,51)           112.5284                                         !
 ! A120  A(50,41,51)           107.8681                                         !
 ! A121  A(39,42,43)           108.4389                                         !
 ! A122  A(39,42,44)           110.7261                                         !
 ! A123  A(39,42,45)           110.3372                                         !
 ! A124  A(43,42,44)           109.2681                                         !
 ! A125  A(43,42,45)           109.5369                                         !
 ! A126  A(44,42,45)           108.5175                                         !
 ! A127  A(1,52,53)            121.9408                                         !
 ! A128  A(52,53,54)           127.4482                                         !
 ! A129  A(52,53,55)           123.9382                                         !
 ! A130  A(54,53,55)           108.5638                                         !
 ! A131  A(53,54,56)           103.8235                                         !
 ! A132  A(53,54,62)           106.9482                                         !
 ! A133  A(53,54,63)           111.0818                                         !
 ! A134  A(56,54,62)           112.2236                                         !
 ! A135  A(56,54,63)           115.3878                                         !
 ! A136  A(62,54,63)           107.1095                                         !
 ! A137  A(53,55,57)           113.2638                                         !
 ! A138  A(53,55,58)           123.7421                                         !
 ! A139  A(57,55,58)           122.2406                                         !
 ! A140  A(54,56,57)           103.7922                                         !
 ! A141  A(54,56,64)           113.6157                                         !
 ! A142  A(54,56,65)           109.6469                                         !
 ! A143  A(57,56,64)           112.0381                                         !
 ! A144  A(57,56,65)           109.5869                                         !
 ! A145  A(64,56,65)           108.0829                                         !
 ! A146  A(55,57,56)           103.1256                                         !
 ! A147  A(55,57,66)           110.1495                                         !
 ! A148  A(55,57,67)           109.7929                                         !
 ! A149  A(56,57,66)           113.2926                                         !
 ! A150  A(56,57,67)           112.5574                                         !
 ! A151  A(66,57,67)           107.8538                                         !
 ! A152  A(55,58,59)           107.9595                                         !
 ! A153  A(55,58,60)           110.4893                                         !
 ! A154  A(55,58,61)           110.6721                                         !
 ! A155  A(59,58,60)           109.4714                                         !
 ! A156  A(59,58,61)           109.7042                                         !
 ! A157  A(60,58,61)           108.5334                                         !
 ! A158  A(15,59,58)           116.7561                                         !
 ! A159  A(27,65,56)           127.8394                                         !
 ! D1    D(2,1,4,5)           -161.7474                                         !
 ! D2    D(3,1,4,5)             51.4417                                         !
 ! D3    D(20,1,4,5)             3.0901                                         !
 ! D4    D(36,1,4,5)           100.8609                                         !
 ! D5    D(52,1,4,5)           -69.7284                                         !
 ! D6    D(2,1,20,14)           20.5156                                         !
 ! D7    D(2,1,20,21)          155.4885                                         !
 ! D8    D(3,1,20,14)          158.2369                                         !
 ! D9    D(3,1,20,21)          -66.7902                                         !
 ! D10   D(4,1,20,14)          -38.0816                                         !
 ! D11   D(4,1,20,21)           96.8914                                         !
 ! D12   D(36,1,20,14)        -114.9374                                         !
 ! D13   D(36,1,20,21)          20.0356                                         !
 ! D14   D(52,1,20,14)          53.7331                                         !
 ! D15   D(52,1,20,21)        -171.294                                          !
 ! D16   D(2,1,36,11)         -108.8651                                         !
 ! D17   D(2,1,36,31)          177.3266                                         !
 ! D18   D(2,1,36,37)           53.0802                                         !
 ! D19   D(3,1,36,11)          145.9709                                         !
 ! D20   D(3,1,36,31)           72.1627                                         !
 ! D21   D(3,1,36,37)          -52.0837                                         !
 ! D22   D(4,1,36,11)          -17.4274                                         !
 ! D23   D(4,1,36,31)          -91.2357                                         !
 ! D24   D(4,1,36,37)          144.518                                          !
 ! D25   D(20,1,36,11)          58.6195                                         !
 ! D26   D(20,1,36,31)         -15.1888                                         !
 ! D27   D(20,1,36,37)        -139.4351                                         !
 ! D28   D(52,1,36,11)          17.504                                          !
 ! D29   D(52,1,36,31)         -56.3043                                         !
 ! D30   D(52,1,36,37)         179.4493                                         !
 ! D31   D(2,1,52,53)         -153.5783                                         !
 ! D32   D(3,1,52,53)          -47.2144                                         !
 ! D33   D(4,1,52,53)          113.5136                                         !
 ! D34   D(20,1,52,53)          36.0795                                         !
 ! D35   D(36,1,52,53)          79.3841                                         !
 ! D36   D(1,4,5,6)             79.1468                                         !
 ! D37   D(1,4,5,7)            -99.0515                                         !
 ! D38   D(4,5,6,8)            167.3071                                         !
 ! D39   D(4,5,6,14)           -73.1891                                         !
 ! D40   D(4,5,6,15)            43.4049                                         !
 ! D41   D(7,5,6,8)            -14.26                                           !
 ! D42   D(7,5,6,14)           105.2437                                         !
 ! D43   D(7,5,6,15)          -138.1623                                         !
 ! D44   D(4,5,7,9)            177.4226                                         !
 ! D45   D(4,5,7,10)             4.1297                                         !
 ! D46   D(6,5,7,9)             -1.0542                                         !
 ! D47   D(6,5,7,10)          -174.3471                                         !
 ! D48   D(5,6,8,9)             22.9117                                         !
 ! D49   D(5,6,8,16)           144.6974                                         !
 ! D50   D(5,6,8,17)           -94.3687                                         !
 ! D51   D(14,6,8,9)           -91.7404                                         !
 ! D52   D(14,6,8,16)           30.0453                                         !
 ! D53   D(14,6,8,17)          150.9791                                         !
 ! D54   D(15,6,8,9)           144.3365                                         !
 ! D55   D(15,6,8,16)          -93.8778                                         !
 ! D56   D(15,6,8,17)           27.0561                                         !
 ! D57   D(5,6,14,20)          -12.4128                                         !
 ! D58   D(5,6,14,27)          -90.5161                                         !
 ! D59   D(8,6,14,20)          101.1225                                         !
 ! D60   D(8,6,14,27)           23.0191                                         !
 ! D61   D(15,6,14,20)        -131.1769                                         !
 ! D62   D(15,6,14,27)         150.7198                                         !
 ! D63   D(5,6,15,59)         -110.4112                                         !
 ! D64   D(8,6,15,59)          131.9158                                         !
 ! D65   D(14,6,15,59)           5.1826                                         !
 ! D66   D(5,7,9,8)             15.8001                                         !
 ! D67   D(5,7,9,18)           137.2414                                         !
 ! D68   D(5,7,9,19)          -104.4249                                         !
 ! D69   D(10,7,9,8)          -170.7928                                         !
 ! D70   D(10,7,9,18)          -49.3515                                         !
 ! D71   D(10,7,9,19)           68.9821                                         !
 ! D72   D(5,7,10,11)            6.3365                                         !
 ! D73   D(5,7,10,12)          125.6766                                         !
 ! D74   D(5,7,10,13)         -114.8443                                         !
 ! D75   D(9,7,10,11)         -166.3882                                         !
 ! D76   D(9,7,10,12)          -47.048                                          !
 ! D77   D(9,7,10,13)           72.4311                                         !
 ! D78   D(6,8,9,7)            -23.334                                          !
 ! D79   D(6,8,9,18)          -142.8684                                         !
 ! D80   D(6,8,9,19)            94.5192                                         !
 ! D81   D(16,8,9,7)          -146.1424                                         !
 ! D82   D(16,8,9,18)           94.3232                                         !
 ! D83   D(16,8,9,19)          -28.2892                                         !
 ! D84   D(17,8,9,7)            94.2435                                         !
 ! D85   D(17,8,9,18)          -25.2909                                         !
 ! D86   D(17,8,9,19)         -147.9033                                         !
 ! D87   D(7,10,11,36)          88.26                                           !
 ! D88   D(12,10,11,36)        -31.4648                                         !
 ! D89   D(13,10,11,36)       -150.1915                                         !
 ! D90   D(7,10,12,33)         -59.6914                                         !
 ! D91   D(11,10,12,33)         59.1022                                         !
 ! D92   D(13,10,12,33)        179.1619                                         !
 ! D93   D(10,11,36,1)         -83.4256                                         !
 ! D94   D(10,11,36,31)          1.7954                                         !
 ! D95   D(10,11,36,37)        117.2869                                         !
 ! D96   D(10,12,33,24)         -3.2665                                         !
 ! D97   D(6,14,20,1)           65.3278                                         !
 ! D98   D(6,14,20,21)         -73.7856                                         !
 ! D99   D(27,14,20,1)        -163.5558                                         !
 ! D100  D(27,14,20,21)         57.3308                                         !
 ! D101  D(6,14,27,26)          26.4517                                         !
 ! D102  D(6,14,27,65)         172.1825                                         !
 ! D103  D(20,14,27,26)        -79.2668                                         !
 ! D104  D(20,14,27,65)         66.464                                          !
 ! D105  D(6,15,59,58)         -53.9573                                         !
 ! D106  D(1,20,21,22)          10.5008                                         !
 ! D107  D(1,20,21,23)        -171.3384                                         !
 ! D108  D(14,20,21,22)        136.6015                                         !
 ! D109  D(14,20,21,23)        -45.2377                                         !
 ! D110  D(20,21,22,24)       -167.7282                                         !
 ! D111  D(20,21,22,30)         72.4337                                         !
 ! D112  D(20,21,22,31)        -43.1701                                         !
 ! D113  D(23,21,22,24)         13.8861                                         !
 ! D114  D(23,21,22,30)       -105.952                                          !
 ! D115  D(23,21,22,31)        138.4442                                         !
 ! D116  D(20,21,23,25)       -175.3473                                         !
 ! D117  D(20,21,23,26)         -6.7053                                         !
 ! D118  D(22,21,23,25)          3.1077                                         !
 ! D119  D(22,21,23,26)        171.7497                                         !
 ! D120  D(21,22,24,25)        -24.2411                                         !
 ! D121  D(21,22,24,32)       -146.1659                                         !
 ! D122  D(21,22,24,33)         92.9421                                         !
 ! D123  D(30,22,24,25)         91.2325                                         !
 ! D124  D(30,22,24,32)        -30.6922                                         !
 ! D125  D(30,22,24,33)       -151.5842                                         !
 ! D126  D(31,22,24,25)       -145.7038                                         !
 ! D127  D(31,22,24,32)         92.3714                                         !
 ! D128  D(31,22,24,33)        -28.5206                                         !
 ! D129  D(21,22,31,36)         59.1593                                         !
 ! D130  D(24,22,31,36)        176.8795                                         !
 ! D131  D(30,22,31,36)        -56.6324                                         !
 ! D132  D(21,23,25,24)        -18.6283                                         !
 ! D133  D(21,23,25,34)       -139.9428                                         !
 ! D134  D(21,23,25,35)        101.3924                                         !
 ! D135  D(26,23,25,24)        172.5372                                         !
 ! D136  D(26,23,25,34)         51.2226                                         !
 ! D137  D(26,23,25,35)        -67.4421                                         !
 ! D138  D(21,23,26,27)          9.1776                                         !
 ! D139  D(21,23,26,28)       -110.4973                                         !
 ! D140  D(21,23,26,29)        129.3206                                         !
 ! D141  D(25,23,26,27)        176.8133                                         !
 ! D142  D(25,23,26,28)         57.1383                                         !
 ! D143  D(25,23,26,29)        -63.0437                                         !
 ! D144  D(22,24,25,23)         25.7779                                         !
 ! D145  D(22,24,25,34)        144.9484                                         !
 ! D146  D(22,24,25,35)        -92.2734                                         !
 ! D147  D(32,24,25,23)        148.6778                                         !
 ! D148  D(32,24,25,34)        -92.1517                                         !
 ! D149  D(32,24,25,35)         30.6266                                         !
 ! D150  D(33,24,25,23)        -91.774                                          !
 ! D151  D(33,24,25,34)         27.3965                                         !
 ! D152  D(33,24,25,35)        150.1748                                         !
 ! D153  D(22,24,33,12)        -18.377                                          !
 ! D154  D(25,24,33,12)         95.2831                                         !
 ! D155  D(32,24,33,12)       -142.6192                                         !
 ! D156  D(23,26,27,14)         57.4678                                         !
 ! D157  D(23,26,27,65)        -90.1729                                         !
 ! D158  D(28,26,27,14)        177.9629                                         !
 ! D159  D(28,26,27,65)         30.3222                                         !
 ! D160  D(29,26,27,14)        -63.2693                                         !
 ! D161  D(29,26,27,65)        149.09                                           !
 ! D162  D(14,27,65,56)         23.2165                                         !
 ! D163  D(26,27,65,56)        179.3646                                         !
 ! D164  D(22,31,36,1)         -23.8613                                         !
 ! D165  D(22,31,36,11)       -121.0251                                         !
 ! D166  D(22,31,36,37)        106.1257                                         !
 ! D167  D(1,36,37,38)         -12.7765                                         !
 ! D168  D(1,36,37,39)         165.4644                                         !
 ! D169  D(11,36,37,38)        141.5045                                         !
 ! D170  D(11,36,37,39)        -40.2546                                         !
 ! D171  D(31,36,37,38)       -122.007                                          !
 ! D172  D(31,36,37,39)         56.2339                                         !
 ! D173  D(36,37,38,40)       -167.0261                                         !
 ! D174  D(36,37,38,46)         73.1804                                         !
 ! D175  D(36,37,38,47)        -42.6878                                         !
 ! D176  D(39,37,38,40)         14.5168                                         !
 ! D177  D(39,37,38,46)       -105.2767                                         !
 ! D178  D(39,37,38,47)        138.8552                                         !
 ! D179  D(36,37,39,41)       -175.9988                                         !
 ! D180  D(36,37,39,42)         -5.0578                                         !
 ! D181  D(38,37,39,41)          2.5221                                         !
 ! D182  D(38,37,39,42)        173.4631                                         !
 ! D183  D(37,38,40,41)        -24.666                                          !
 ! D184  D(37,38,40,48)       -146.4941                                         !
 ! D185  D(37,38,40,49)         92.4057                                         !
 ! D186  D(46,38,40,41)         90.5095                                         !
 ! D187  D(46,38,40,48)        -31.3186                                         !
 ! D188  D(46,38,40,49)       -152.4188                                         !
 ! D189  D(47,38,40,41)       -146.0853                                         !
 ! D190  D(47,38,40,48)         92.0866                                         !
 ! D191  D(47,38,40,49)        -29.0136                                         !
 ! D192  D(37,39,41,40)        -18.3582                                         !
 ! D193  D(37,39,41,50)       -139.7303                                         !
 ! D194  D(37,39,41,51)        101.7037                                         !
 ! D195  D(42,39,41,40)        170.5022                                         !
 ! D196  D(42,39,41,50)         49.1302                                         !
 ! D197  D(42,39,41,51)        -69.4358                                         !
 ! D198  D(37,39,42,43)         10.0815                                         !
 ! D199  D(37,39,42,44)       -109.7913                                         !
 ! D200  D(37,39,42,45)        130.0501                                         !
 ! D201  D(41,39,42,43)       -179.7648                                         !
 ! D202  D(41,39,42,44)         60.3624                                         !
 ! D203  D(41,39,42,45)        -59.7962                                         !
 ! D204  D(38,40,41,39)         25.8904                                         !
 ! D205  D(38,40,41,50)        145.0896                                         !
 ! D206  D(38,40,41,51)        -92.137                                          !
 ! D207  D(48,40,41,39)        148.6993                                         !
 ! D208  D(48,40,41,50)        -92.1015                                         !
 ! D209  D(48,40,41,51)         30.6719                                         !
 ! D210  D(49,40,41,39)        -91.4613                                         !
 ! D211  D(49,40,41,50)         27.7379                                         !
 ! D212  D(49,40,41,51)        150.5113                                         !
 ! D213  D(1,52,53,54)          46.2772                                         !
 ! D214  D(1,52,53,55)        -136.5888                                         !
 ! D215  D(52,53,54,56)       -166.8394                                         !
 ! D216  D(52,53,54,62)         74.3332                                         !
 ! D217  D(52,53,54,63)        -42.2244                                         !
 ! D218  D(55,53,54,56)         15.6685                                         !
 ! D219  D(55,53,54,62)       -103.1588                                         !
 ! D220  D(55,53,54,63)        140.2836                                         !
 ! D221  D(52,53,55,57)       -176.1824                                         !
 ! D222  D(52,53,55,58)         -5.9514                                         !
 ! D223  D(54,53,55,57)          1.4177                                         !
 ! D224  D(54,53,55,58)        171.6487                                         !
 ! D225  D(53,54,56,57)        -25.4568                                         !
 ! D226  D(53,54,56,64)       -147.395                                          !
 ! D227  D(53,54,56,65)         91.5544                                         !
 ! D228  D(62,54,56,57)         89.6828                                         !
 ! D229  D(62,54,56,64)        -32.2554                                         !
 ! D230  D(62,54,56,65)       -153.306                                          !
 ! D231  D(63,54,56,57)       -147.2463                                         !
 ! D232  D(63,54,56,64)         90.8155                                         !
 ! D233  D(63,54,56,65)        -30.2351                                         !
 ! D234  D(53,55,57,56)        -17.7646                                         !
 ! D235  D(53,55,57,66)       -138.9671                                         !
 ! D236  D(53,55,57,67)        102.4041                                         !
 ! D237  D(58,55,57,56)        171.838                                          !
 ! D238  D(58,55,57,66)         50.6355                                         !
 ! D239  D(58,55,57,67)        -67.9933                                         !
 ! D240  D(53,55,58,59)          5.9384                                         !
 ! D241  D(53,55,58,60)       -113.7443                                         !
 ! D242  D(53,55,58,61)        126.0129                                         !
 ! D243  D(57,55,58,59)        175.3183                                         !
 ! D244  D(57,55,58,60)         55.6356                                         !
 ! D245  D(57,55,58,61)        -64.6072                                         !
 ! D246  D(54,56,57,55)         26.068                                          !
 ! D247  D(54,56,57,66)        145.1122                                         !
 ! D248  D(54,56,57,67)        -92.1852                                         !
 ! D249  D(64,56,57,55)        149.0502                                         !
 ! D250  D(64,56,57,66)        -91.9056                                         !
 ! D251  D(64,56,57,67)         30.797                                          !
 ! D252  D(65,56,57,55)        -90.9852                                         !
 ! D253  D(65,56,57,66)         28.0591                                         !
 ! D254  D(65,56,57,67)        150.7616                                         !
 ! D255  D(54,56,65,27)        -72.8357                                         !
 ! D256  D(57,56,65,27)         40.4751                                         !
 ! D257  D(64,56,65,27)        162.829                                          !
 ! D258  D(55,58,59,15)         97.8372                                         !
 ! D259  D(60,58,59,15)       -141.8392                                         !
 ! D260  D(61,58,59,15)        -22.8444                                         !
 --------------------------------------------------------------------------------
 Stoichiometry    C20H36Br2N4O4Pb
 Framework group  C1[X(C20H36Br2N4O4Pb)]
 Deg. of freedom   195
 Full point group                 C1      NOp   1
 Largest Abelian subgroup         C1      NOp   1
 Largest concise Abelian subgroup C1      NOp   1
                         Standard orientation:                         
 ---------------------------------------------------------------------
 Center     Atomic      Atomic             Coordinates (Angstroms)
 Number     Number       Type             X           Y           Z
 ---------------------------------------------------------------------
      1         82           0       -0.421132   -0.825299   -0.246566
      2         35           0       -2.003271   -2.915458   -1.730721
      3         35           0       -1.261512   -1.096132    2.680119
      4          8           0        0.308027    0.313368   -2.362623
      5          6           0        1.285176    1.103784   -2.420664
      6          6           0        2.753548    0.729497   -2.481184
      7          7           0        1.181832    2.454912   -2.403899
      8          6           0        3.460717    2.039264   -2.863560
      9          6           0        2.474708    3.140938   -2.422894
     10          6           0       -0.068812    3.165365   -2.229960
     11          1           0       -0.860571    2.427391   -2.005162
     12          1           0        0.017064    3.879237   -1.384827
     13          1           0       -0.327165    3.740670   -3.142982
     14          1           0        3.021184    0.372219   -1.464622
     15          1           0        2.918799   -0.106831   -3.184783
     16          1           0        4.450767    2.158815   -2.387212
     17          1           0        3.602651    2.086262   -3.960866
     18          1           0        2.444211    4.003213   -3.118272
     19          1           0        2.696602    3.533005   -1.404800
     20          8           0        1.531180    0.686108    0.566829
     21          6           0        1.426354    1.824429    1.090519
     22          6           0        0.159398    2.499671    1.575685
     23          7           0        2.481645    2.640479    1.342186
     24          6           0        0.584862    3.956035    1.814570
     25          6           0        2.104285    3.864293    2.054707
     26          6           0        3.864322    2.243746    1.167419
     27          1           0        3.881002    1.265783    0.653298
     28          1           0        4.370883    2.149533    2.151096
     29          1           0        4.411600    2.993192    0.560964
     30          1           0       -0.147758    1.976228    2.507335
     31          1           0       -0.663088    2.357654    0.849140
     32          1           0        0.060221    4.434772    2.660659
     33          1           0        0.389340    4.562615    0.907458
     34          1           0        2.665430    4.730324    1.651673
     35          1           0        2.359211    3.762747    3.133422
     36          8           0       -2.129747    1.098044   -0.420261
     37          6           0       -3.342031    1.042113   -0.078830
     38          6           0       -4.145689   -0.199086    0.251939
     39          7           0       -4.132223    2.130405    0.082130
     40          6           0       -5.599679    0.296666    0.263887
     41          6           0       -5.473323    1.800728    0.572267
     42          6           0       -3.661286    3.496461   -0.014177
     43          1           0       -2.630872    3.483545   -0.411517
     44          1           0       -3.663228    3.984084    0.983501
     45          1           0       -4.313149    4.081696   -0.693321
     46          1           0       -3.793464   -0.549316    1.247963
     47          1           0       -3.929346   -1.011943   -0.468565
     48          1           0       -6.236401   -0.224771    1.000988
     49          1           0       -6.052940    0.161050   -0.737967
     50          1           0       -6.232797    2.420871    0.056180
     51          1           0       -5.536814    2.019521    1.661975
     52          8           0        1.694047   -2.206761   -0.366021
     53          6           0        2.611574   -2.094776    0.488129
     54          6           0        2.466140   -2.048210    1.996988
     55          7           0        3.932344   -2.050267    0.179837
     56          6           0        3.841296   -1.570584    2.483392
     57          6           0        4.800397   -2.006148    1.358733
     58          6           0        4.453730   -2.250274   -1.156576
     59          1           0        3.596282   -2.328219   -1.848573
     60          1           0        5.053573   -3.183170   -1.204074
     61          1           0        5.099648   -1.400357   -1.455961
     62          1           0        2.237500   -3.083400    2.332719
     63          1           0        1.611071   -1.413270    2.294795
     64          1           0        4.134055   -1.988962    3.463038
     65          1           0        3.843901   -0.466087    2.566609
     66          1           0        5.633530   -1.294171    1.192985
     67          1           0        5.241914   -3.012055    1.539665
 ---------------------------------------------------------------------
 Rotational constants (GHZ):           0.1071421           0.0809940           0.0697383
 General basis read from cards:  (5D, 7F)
 ======================================================================================================
                                       Pseudopotential Parameters
 ======================================================================================================
  Center     Atomic      Valence      Angular      Power
  Number     Number     Electrons     Momentum     of R      Exponent        Coefficient   SO-Coeffient
 ======================================================================================================
    1         82            4
                                      G and up 
                                                     0      376.5803786       -0.17896050    0.00000000
                                                     1       86.4840014      -54.39723370    0.00000000
                                                     2       26.6784276     -199.70617590    0.00000000
                                                     2        9.4261986      -79.12239410    0.00000000
                                                     2        2.7101719      -24.98690200    0.00000000
                                                     2        0.8792031       -4.43979390    0.00000000
                                      S - G
                                                     0      132.4248796        2.81153860    0.00000000
                                                     1       47.2376044       65.03672050    0.00000000
                                                     2       17.6312727      212.78685450    0.00000000
                                                     2        5.4744712       72.10531750    0.00000000
                                                     2        1.2634856       33.01409400    0.00000000
                                                     2        0.7651447       -5.77084610    0.00000000
                                      P - G
                                                     0       67.8966454        4.87549110    0.00000000
                                                     1       24.9898225       63.91481020    0.00000000
                                                     2       10.7052939      148.10643580    0.00000000
                                                     2        3.2792568       47.31063010    0.00000000
                                                     2        0.8452522       21.03067020    0.00000000
                                                     2        0.6416245       -7.09307720    0.00000000
                                      D - G
                                                     0       68.8336005        3.21613880    0.00000000
                                                     1       24.2815874       55.73860860    0.00000000
                                                     2        9.4532762      121.41683510    0.00000000
                                                     2        2.4788185       19.34560640    0.00000000
                                                     2        2.4789161       15.36751680    0.00000000
                                                     2        0.5551738        6.12987240    0.00000000
                                      F - G
                                                     0      128.1021322        4.13536820    0.00000000
                                                     1       54.8029154       67.51284460    0.00000000
                                                     2       24.5529308      258.73731070    0.00000000
                                                     2        8.1144792      113.24782640    0.00000000
                                                     2        1.6931290       34.16802010    0.00000000
                                                     2        0.7670500       -6.55319560    0.00000000
    2         35            7
                                      F and up 
                                                     1      213.6143969      -28.00000000    0.00000000
                                                     2       41.0585380     -134.92688520    0.00000000
                                                     2        8.7086530      -41.92719130    0.00000000
                                                     2        2.6074661       -5.93364200    0.00000000
                                      S - F
                                                     0       54.1980682        3.00000000    0.00000000
                                                     1       32.9053558       27.34306420    0.00000000
                                                     2       13.6744890      118.80288470    0.00000000
                                                     2        3.0341152       43.43548760    0.00000000
                                      P - F
                                                     0       54.2563340        5.00000000    0.00000000
                                                     1       26.0095593       25.05042520    0.00000000
                                                     2       28.2012995       92.61574630    0.00000000
                                                     2        9.4341061       95.82490160    0.00000000
                                                     2        2.5321764       26.26849830    0.00000000
                                      D - F
                                                     0       87.6328721        3.00000000    0.00000000
                                                     1       61.7373377       22.55335570    0.00000000
                                                     2       32.4385104      178.12419880    0.00000000
                                                     2        8.7537199       76.99241620    0.00000000
                                                     2        1.6633189        9.48182700    0.00000000
    3         35            7
                                      F and up 
                                                     1      213.6143969      -28.00000000    0.00000000
                                                     2       41.0585380     -134.92688520    0.00000000
                                                     2        8.7086530      -41.92719130    0.00000000
                                                     2        2.6074661       -5.93364200    0.00000000
                                      S - F
                                                     0       54.1980682        3.00000000    0.00000000
                                                     1       32.9053558       27.34306420    0.00000000
                                                     2       13.6744890      118.80288470    0.00000000
                                                     2        3.0341152       43.43548760    0.00000000
                                      P - F
                                                     0       54.2563340        5.00000000    0.00000000
                                                     1       26.0095593       25.05042520    0.00000000
                                                     2       28.2012995       92.61574630    0.00000000
                                                     2        9.4341061       95.82490160    0.00000000
                                                     2        2.5321764       26.26849830    0.00000000
                                      D - F
                                                     0       87.6328721        3.00000000    0.00000000
                                                     1       61.7373377       22.55335570    0.00000000
                                                     2       32.4385104      178.12419880    0.00000000
                                                     2        8.7537199       76.99241620    0.00000000
                                                     2        1.6633189        9.48182700    0.00000000
    4          8
                                   No pseudopotential on this center.
    5          6
                                   No pseudopotential on this center.
    6          6
                                   No pseudopotential on this center.
    7          7
                                   No pseudopotential on this center.
    8          6
                                   No pseudopotential on this center.
    9          6
                                   No pseudopotential on this center.
   10          6
                                   No pseudopotential on this center.
   11          1
                                   No pseudopotential on this center.
   12          1
                                   No pseudopotential on this center.
   13          1
                                   No pseudopotential on this center.
   14          1
                                   No pseudopotential on this center.
   15          1
                                   No pseudopotential on this center.
   16          1
                                   No pseudopotential on this center.
   17          1
                                   No pseudopotential on this center.
   18          1
                                   No pseudopotential on this center.
   19          1
                                   No pseudopotential on this center.
   20          8
                                   No pseudopotential on this center.
   21          6
                                   No pseudopotential on this center.
   22          6
                                   No pseudopotential on this center.
   23          7
                                   No pseudopotential on this center.
   24          6
                                   No pseudopotential on this center.
   25          6
                                   No pseudopotential on this center.
   26          6
                                   No pseudopotential on this center.
   27          1
                                   No pseudopotential on this center.
   28          1
                                   No pseudopotential on this center.
   29          1
                                   No pseudopotential on this center.
   30          1
                                   No pseudopotential on this center.
   31          1
                                   No pseudopotential on this center.
   32          1
                                   No pseudopotential on this center.
   33          1
                                   No pseudopotential on this center.
   34          1
                                   No pseudopotential on this center.
   35          1
                                   No pseudopotential on this center.
   36          8
                                   No pseudopotential on this center.
   37          6
                                   No pseudopotential on this center.
   38          6
                                   No pseudopotential on this center.
   39          7
                                   No pseudopotential on this center.
   40          6
                                   No pseudopotential on this center.
   41          6
                                   No pseudopotential on this center.
   42          6
                                   No pseudopotential on this center.
   43          1
                                   No pseudopotential on this center.
   44          1
                                   No pseudopotential on this center.
   45          1
                                   No pseudopotential on this center.
   46          1
                                   No pseudopotential on this center.
   47          1
                                   No pseudopotential on this center.
   48          1
                                   No pseudopotential on this center.
   49          1
                                   No pseudopotential on this center.
   50          1
                                   No pseudopotential on this center.
   51          1
                                   No pseudopotential on this center.
   52          8
                                   No pseudopotential on this center.
   53          6
                                   No pseudopotential on this center.
   54          6
                                   No pseudopotential on this center.
   55          7
                                   No pseudopotential on this center.
   56          6
                                   No pseudopotential on this center.
   57          6
                                   No pseudopotential on this center.
   58          6
                                   No pseudopotential on this center.
   59          1
                                   No pseudopotential on this center.
   60          1
                                   No pseudopotential on this center.
   61          1
                                   No pseudopotential on this center.
   62          1
                                   No pseudopotential on this center.
   63          1
                                   No pseudopotential on this center.
   64          1
                                   No pseudopotential on this center.
   65          1
                                   No pseudopotential on this center.
   66          1
                                   No pseudopotential on this center.
   67          1
                                   No pseudopotential on this center.
 ======================================================================================================
 There are  1544 symmetry adapted cartesian basis functions of A   symmetry.
 There are  1368 symmetry adapted basis functions of A   symmetry.
  1368 basis functions,  2104 primitive gaussians,  1544 cartesian basis functions
   117 alpha electrons      117 beta electrons
       nuclear repulsion energy      3293.1806998169 Hartrees.
 NAtoms=   67 NActive=   67 NUniq=   67 SFac= 1.00D+00 NAtFMM=   60 NAOKFM=T Big=T
 Integral buffers will be    131072 words long.
 Raffenetti 1 integral format.
 Two-electron integral symmetry is turned on.
 Nuclear repulsion after empirical dispersion term =     3293.0972648296 Hartrees.
 Using the following non-standard input for PCM:
 eps=32.55
 --- end of non-standard input.
 ------------------------------------------------------------------------------
 Polarizable Continuum Model (PCM)
 =================================
 Model                : PCM.
 Atomic radii         : UFF (Universal Force Field).
 Polarization charges : Total charges.
 Charge compensation  : None.
 Solution method      : On-the-fly selection.
 Cavity type          : Scaled VdW (van der Waals Surface) (Alpha=1.100).
 Cavity algorithm     : GePol (No added spheres)
                        Default sphere list used, NSphG=   67.
                        Lebedev-Laikov grids with approx.  5.0 points / Ang**2.
                        Smoothing algorithm: York/Karplus (Gamma=1.0000).
                        Polarization charges: spherical gaussians, with
                                              point-specific exponents (IZeta= 3).
                        Self-potential: point-specific (ISelfS= 7).
                        Self-field    : sphere-specific E.n sum rule (ISelfD= 2).
 Solvent              : Water, Eps=  32.550000 Eps(inf)=   1.777849
 ------------------------------------------------------------------------------
 One-electron integrals computed using PRISM.
   1 Symmetry operations used in ECPInt.
 ECPInt:  NShTT=  129286 NPrTT=  452931 LenC2=  101230 LenP2D=  224392.
 LDataN:  DoStor=T MaxTD1= 7 Len=  274
 NBasis=  1368 RedAO= T EigKep=  1.79D-04  NBF=  1368
 NBsUse=  1368 1.00D-06 EigRej= -1.00D+00 NBFU=  1368
 Defaulting to unpruned grid for atomic number  82.
 Initial guess from the checkpoint file:  "03-PbBr2_nmp.chk"
 B after Tr=     0.000000   -0.000000    0.000000
         Rot=    1.000000   -0.000000    0.000000   -0.000000 Ang=   0.00 deg.
 Requested convergence on RMS density matrix=1.00D-08 within 128 cycles.
 Requested convergence on MAX density matrix=1.00D-06.
 Requested convergence on             energy=1.00D-06.
 No special actions if energy rises.
 Defaulting to unpruned grid for atomic number  82.
 Defaulting to unpruned grid for atomic number  82.
 Defaulting to unpruned grid for atomic number  82.
 Defaulting to unpruned grid for atomic number  82.
 Defaulting to unpruned grid for atomic number  82.
 Defaulting to unpruned grid for atomic number  82.
 Defaulting to unpruned grid for atomic number  82.
 Inv3:  Mode=1 IEnd=    66382848.
 Iteration    1 A*A^-1 deviation from unit magnitude is 3.44D-15 for    190.
 Iteration    1 A*A^-1 deviation from orthogonality  is 2.44D-15 for   3298   1864.
 Iteration    1 A^-1*A deviation from unit magnitude is 3.00D-15 for    190.
 Iteration    1 A^-1*A deviation from orthogonality  is 1.74D-14 for   3743   3260.
 Error on total polarization charges =  0.02223
 SCF Done:  E(RCAM-B3LYP) =  -1333.64487927     A.U. after   12 cycles
            NFock= 12  Conv=0.26D-08     -V/T= 2.0230
 DoSCS=F DFT=T ScalE2(SS,OS)=  1.000000  1.000000
 ExpMin= 5.98D-02 ExpMax= 1.53D+04 ExpMxC= 5.22D+02 IAcc=3 IRadAn=         5 AccDes= 0.00D+00
 HarFok:  IExCor=  205 AccDes= 0.00D+00 IRadAn=         5 IDoV=-2 UseB2=F ITyADJ=14
 ICtDFT= 12500011 ScaDFX=  1.000000  1.000000  1.000000  1.000000
 Defaulting to unpruned grid for atomic number  82.
 GSVD:  LWork=       -1008 too small for GESVD, short by        4340 words or        4340 for optimal perf.
 Range of M.O.s used for correlation:    29  1368
 NBasis=  1368 NAE=   117 NBE=   117 NFC=    28 NFV=     0
 NROrb=   1340 NOA=    89 NOB=    89 NVA=  1251 NVB=  1251

 **** Warning!!: The largest alpha MO coefficient is  0.11320808D+02

 NEqPCM:  Using non-equilibrium solvation (IEInf=1, Eps=  32.5500, EpsInf=   1.7778)
 Inv3:  Mode=1 IEnd=    66382848.
 Iteration    1 A*A^-1 deviation from unit magnitude is 3.33D-15 for     75.
 Iteration    1 A*A^-1 deviation from orthogonality  is 2.44D-15 for   3298   1864.
 Iteration    1 A^-1*A deviation from unit magnitude is 3.11D-15 for     75.
 Iteration    1 A^-1*A deviation from orthogonality  is 1.09D-14 for   2812   2775.
 Orbital symmetries:
       Occupied  (A) (A) (A) (A) (A) (A) (A) (A) (A) (A) (A) (A)
                 (A) (A) (A) (A) (A) (A) (A) (A) (A) (A) (A) (A)
                 (A) (A) (A) (A) (A) (A) (A) (A) (A) (A) (A) (A)
                 (A) (A) (A) (A) (A) (A) (A) (A) (A) (A) (A) (A)
                 (A) (A) (A) (A) (A) (A) (A) (A) (A) (A) (A) (A)
                 (A) (A) (A) (A) (A) (A) (A) (A) (A) (A) (A) (A)
                 (A) (A) (A) (A) (A) (A) (A) (A) (A) (A) (A) (A)
                 (A) (A) (A) (A) (A) (A) (A) (A) (A) (A) (A) (A)
                 (A) (A) (A) (A) (A) (A) (A) (A) (A) (A) (A) (A)
                 (A) (A) (A) (A) (A) (A) (A) (A) (A)
       Virtual   (A) (A) (A) (A) (A) (A) (A) (A) (A) (A) (A) (A)
                 (A) (A) (A) (A) (A) (A) (A) (A) (A) (A) (A) (A)
                 (A) (A) (A) (A) (A) (A) (A) (A) (A) (A) (A) (A)
                 (A) (A) (A) (A) (A) (A) (A) (A) (A) (A) (A) (A)
                 (A) (A) (A) (A) (A) (A) (A) (A) (A) (A) (A) (A)
                 (A) (A) (A) (A) (A) (A) (A) (A) (A) (A) (A) (A)
                 (A) (A) (A) (A) (A) (A) (A) (A) (A) (A) (A) (A)
                 (A) (A) (A) (A) (A) (A) (A) (A) (A) (A) (A) (A)
                 (A) (A) (A) (A) (A) (A) (A) (A) (A) (A) (A) (A)
                 (A) (A) (A) (A) (A) (A) (A) (A) (A) (A) (A) (A)
                 (A) (A) (A) (A) (A) (A) (A) (A) (A) (A) (A) (A)
                 (A) (A) (A) (A) (A) (A) (A) (A) (A) (A) (A) (A)
                 (A) (A) (A) (A) (A) (A) (A) (A) (A) (A) (A) (A)
                 (A) (A) (A) (A) (A) (A) (A) (A) (A) (A) (A) (A)
                 (A) (A) (A) (A) (A) (A) (A) (A) (A) (A) (A) (A)
                 (A) (A) (A) (A) (A) (A) (A) (A) (A) (A) (A) (A)
                 (A) (A) (A) (A) (A) (A) (A) (A) (A) (A) (A) (A)
                 (A) (A) (A) (A) (A) (A) (A) (A) (A) (A) (A) (A)
                 (A) (A) (A) (A) (A) (A) (A) (A) (A) (A) (A) (A)
                 (A) (A) (A) (A) (A) (A) (A) (A) (A) (A) (A) (A)
                 (A) (A) (A) (A) (A) (A) (A) (A) (A) (A) (A) (A)
                 (A) (A) (A) (A) (A) (A) (A) (A) (A) (A) (A) (A)
                 (A) (A) (A) (A) (A) (A) (A) (A) (A) (A) (A) (A)
                 (A) (A) (A) (A) (A) (A) (A) (A) (A) (A) (A) (A)
                 (A) (A) (A) (A) (A) (A) (A) (A) (A) (A) (A) (A)
                 (A) (A) (A) (A) (A) (A) (A) (A) (A) (A) (A) (A)
                 (A) (A) (A) (A) (A) (A) (A) (A) (A) (A) (A) (A)
                 (A) (A) (A) (A) (A) (A) (A) (A) (A) (A) (A) (A)
                 (A) (A) (A) (A) (A) (A) (A) (A) (A) (A) (A) (A)
                 (A) (A) (A) (A) (A) (A) (A) (A) (A) (A) (A) (A)
                 (A) (A) (A) (A) (A) (A) (A) (A) (A) (A) (A) (A)
                 (A) (A) (A) (A) (A) (A) (A) (A) (A) (A) (A) (A)
                 (A) (A) (A) (A) (A) (A) (A) (A) (A) (A) (A) (A)
                 (A) (A) (A) (A) (A) (A) (A) (A) (A) (A) (A) (A)
                 (A) (A) (A) (A) (A) (A) (A) (A) (A) (A) (A) (A)
                 (A) (A) (A) (A) (A) (A) (A) (A) (A) (A) (A) (A)
                 (A) (A) (A) (A) (A) (A) (A) (A) (A) (A) (A) (A)
                 (A) (A) (A) (A) (A) (A) (A) (A) (A) (A) (A) (A)
                 (A) (A) (A) (A) (A) (A) (A) (A) (A) (A) (A) (A)
                 (A) (A) (A) (A) (A) (A) (A) (A) (A) (A) (A) (A)
                 (A) (A) (A) (A) (A) (A) (A) (A) (A) (A) (A) (A)
                 (A) (A) (A) (A) (A) (A) (A) (A) (A) (A) (A) (A)
                 (A) (A) (A) (A) (A) (A) (A) (A) (A) (A) (A) (A)
                 (A) (A) (A) (A) (A) (A) (A) (A) (A) (A) (A) (A)
                 (A) (A) (A) (A) (A) (A) (A) (A) (A) (A) (A) (A)
                 (A) (A) (A) (A) (A) (A) (A) (A) (A) (A) (A) (A)
                 (A) (A) (A) (A) (A) (A) (A) (A) (A) (A) (A) (A)
                 (A) (A) (A) (A) (A) (A) (A) (A) (A) (A) (A) (A)
                 (A) (A) (A) (A) (A) (A) (A) (A) (A) (A) (A) (A)
                 (A) (A) (A) (A) (A) (A) (A) (A) (A) (A) (A) (A)
                 (A) (A) (A) (A) (A) (A) (A) (A) (A) (A) (A) (A)
                 (A) (A) (A) (A) (A) (A) (A) (A) (A) (A) (A) (A)
                 (A) (A) (A) (A) (A) (A) (A) (A) (A) (A) (A) (A)
                 (A) (A) (A) (A) (A) (A) (A) (A) (A) (A) (A) (A)
                 (A) (A) (A) (A) (A) (A) (A) (A) (A) (A) (A) (A)
                 (A) (A) (A) (A) (A) (A) (A) (A) (A) (A) (A) (A)
                 (A) (A) (A) (A) (A) (A) (A) (A) (A) (A) (A) (A)
                 (A) (A) (A) (A) (A) (A) (A) (A) (A) (A) (A) (A)
                 (A) (A) (A) (A) (A) (A) (A) (A) (A) (A) (A) (A)
                 (A) (A) (A) (A) (A) (A) (A) (A) (A) (A) (A) (A)
                 (A) (A) (A) (A) (A) (A) (A) (A) (A) (A) (A) (A)
                 (A) (A) (A) (A) (A) (A) (A) (A) (A) (A) (A) (A)
                 (A) (A) (A) (A) (A) (A) (A) (A) (A) (A) (A) (A)
                 (A) (A) (A) (A) (A) (A) (A) (A) (A) (A) (A) (A)
                 (A) (A) (A) (A) (A) (A) (A) (A) (A) (A) (A) (A)
                 (A) (A) (A) (A) (A) (A) (A) (A) (A) (A) (A) (A)
                 (A) (A) (A) (A) (A) (A) (A) (A) (A) (A) (A) (A)
                 (A) (A) (A) (A) (A) (A) (A) (A) (A) (A) (A) (A)
                 (A) (A) (A) (A) (A) (A) (A) (A) (A) (A) (A) (A)
                 (A) (A) (A) (A) (A) (A) (A) (A) (A) (A) (A) (A)
                 (A) (A) (A) (A) (A) (A) (A) (A) (A) (A) (A) (A)
                 (A) (A) (A) (A) (A) (A) (A) (A) (A) (A) (A) (A)
                 (A) (A) (A) (A) (A) (A) (A) (A) (A) (A) (A) (A)
                 (A) (A) (A) (A) (A) (A) (A) (A) (A) (A) (A) (A)
                 (A) (A) (A) (A) (A) (A) (A) (A) (A) (A) (A) (A)
                 (A) (A) (A) (A) (A) (A) (A) (A) (A) (A) (A) (A)
                 (A) (A) (A) (A) (A) (A) (A) (A) (A) (A) (A) (A)
                 (A) (A) (A) (A) (A) (A) (A) (A) (A) (A) (A) (A)
                 (A) (A) (A) (A) (A) (A) (A) (A) (A) (A) (A) (A)
                 (A) (A) (A) (A) (A) (A) (A) (A) (A) (A) (A) (A)
                 (A) (A) (A) (A) (A) (A) (A) (A) (A) (A) (A) (A)
                 (A) (A) (A) (A) (A) (A) (A) (A) (A) (A) (A) (A)
                 (A) (A) (A) (A) (A) (A) (A) (A) (A) (A) (A) (A)
                 (A) (A) (A) (A) (A) (A) (A) (A) (A) (A) (A) (A)
                 (A) (A) (A) (A) (A) (A) (A) (A) (A) (A) (A) (A)
                 (A) (A) (A) (A) (A) (A) (A) (A) (A) (A) (A) (A)
                 (A) (A) (A) (A) (A) (A) (A) (A) (A) (A) (A) (A)
                 (A) (A) (A) (A) (A) (A) (A) (A) (A) (A) (A) (A)
                 (A) (A) (A) (A) (A) (A) (A) (A) (A) (A) (A) (A)
                 (A) (A) (A) (A) (A) (A) (A) (A) (A) (A) (A) (A)
                 (A) (A) (A) (A) (A) (A) (A) (A) (A) (A) (A) (A)
                 (A) (A) (A) (A) (A) (A) (A) (A) (A) (A) (A) (A)
                 (A) (A) (A) (A) (A) (A) (A) (A) (A) (A) (A) (A)
                 (A) (A) (A) (A) (A) (A) (A) (A) (A) (A) (A) (A)
                 (A) (A) (A) (A) (A) (A) (A) (A) (A) (A) (A) (A)
                 (A) (A) (A) (A) (A) (A) (A) (A) (A) (A) (A) (A)
                 (A) (A) (A) (A) (A) (A) (A) (A) (A) (A) (A) (A)
                 (A) (A) (A) (A) (A) (A) (A) (A) (A) (A) (A) (A)
[...]
 Alpha virt. eigenvalues --    2.47202   2.47775   2.48502   2.49130   2.49596
 Alpha virt. eigenvalues --    2.50170   2.51057   2.52113   2.52192   2.53139
 Alpha virt. eigenvalues --    2.54118   2.54431   2.54652   2.55483   2.56051
 Alpha virt. eigenvalues --    2.56540   2.57012   2.57449   2.58329   2.58803
 Alpha virt. eigenvalues --    2.59078   2.59238   2.60336   2.61007   2.61485
 Alpha virt. eigenvalues --    2.62154   2.62359   2.62862   2.63172   2.63757
 Alpha virt. eigenvalues --    2.64014   2.64413   2.64612   2.65011   2.65255
 Alpha virt. eigenvalues --    2.65564   2.66032   2.66320   2.66709   2.66889
 Alpha virt. eigenvalues --    2.67527   2.67884   2.68642   2.69205   2.69513
 Alpha virt. eigenvalues --    2.69872   2.70371   2.70877   2.71425   2.71605
 Alpha virt. eigenvalues --    2.71753   2.72354   2.72384   2.72936   2.73129
 Alpha virt. eigenvalues --    2.73710   2.74263   2.74432   2.75334   2.75582
 Alpha virt. eigenvalues --    2.76113   2.76879   2.77557   2.77994   2.78500
 Alpha virt. eigenvalues --    2.79087   2.79445   2.79800   2.80015   2.80599
 Alpha virt. eigenvalues --    2.81496   2.81543   2.82046   2.82706   2.82888
 Alpha virt. eigenvalues --    2.84154   2.84603   2.85480   2.86067   2.86306
 Alpha virt. eigenvalues --    2.86806   2.87072   2.87609   2.88283   2.88508
 Alpha virt. eigenvalues --    2.88974   2.89441   2.89668   2.90158   2.90920
 Alpha virt. eigenvalues --    2.91336   2.91573   2.92270   2.92528   2.93242
 Alpha virt. eigenvalues --    2.93840   2.94058   2.94754   2.94854   2.95534
 Alpha virt. eigenvalues --    2.95963   2.96371   2.96756   2.96932   2.97600
 Alpha virt. eigenvalues --    2.97800   2.98258   2.99234   2.99908   3.00358
 Alpha virt. eigenvalues --    3.00792   3.01027   3.01455   3.01742   3.02021
 Alpha virt. eigenvalues --    3.02711   3.02803   3.02927   3.03146   3.03777
 Alpha virt. eigenvalues --    3.04116   3.04208   3.04554   3.04945   3.05351
 Alpha virt. eigenvalues --    3.05943   3.06192   3.06351   3.06802   3.07122
 Alpha virt. eigenvalues --    3.07215   3.07423   3.08012   3.08235   3.08786
 Alpha virt. eigenvalues --    3.09141   3.09381   3.09583   3.10143   3.10355
 Alpha virt. eigenvalues --    3.11049   3.11162   3.11542   3.12482   3.12766
 Alpha virt. eigenvalues --    3.13021   3.13169   3.13495   3.13690   3.13809
 Alpha virt. eigenvalues --    3.14231   3.14688   3.14761   3.15301   3.15441
 Alpha virt. eigenvalues --    3.15565   3.16434   3.17046   3.17258   3.17496
 Alpha virt. eigenvalues --    3.18513   3.18734   3.19296   3.19429   3.19727
 Alpha virt. eigenvalues --    3.20001   3.20759   3.20842   3.21724   3.22112
 Alpha virt. eigenvalues --    3.22284   3.22630   3.22857   3.23279   3.23630
 Alpha virt. eigenvalues --    3.23990   3.24739   3.25135   3.25507   3.25774
 Alpha virt. eigenvalues --    3.26454   3.26587   3.27100   3.27416   3.27674
 Alpha virt. eigenvalues --    3.28131   3.28371   3.28419   3.29255   3.29934
 Alpha virt. eigenvalues --    3.30244   3.30681   3.31191   3.31605   3.31674
 Alpha virt. eigenvalues --    3.32108   3.32901   3.33439   3.33581   3.33954
 Alpha virt. eigenvalues --    3.34242   3.34889   3.35172   3.35299   3.35513
 Alpha virt. eigenvalues --    3.35818   3.36123   3.36392   3.36866   3.37724
 Alpha virt. eigenvalues --    3.38072   3.38587   3.38918   3.39088   3.39504
 Alpha virt. eigenvalues --    3.39537   3.40299   3.40511   3.40737   3.41122
 Alpha virt. eigenvalues --    3.41770   3.42289   3.42590   3.42809   3.43724
 Alpha virt. eigenvalues --    3.44391   3.44724   3.45056   3.45382   3.46192
 Alpha virt. eigenvalues --    3.46646   3.46860   3.47013   3.47210   3.47930
 Alpha virt. eigenvalues --    3.48246   3.48358   3.48607   3.49173   3.49506
 Alpha virt. eigenvalues --    3.50161   3.50522   3.50939   3.51100   3.51446
 Alpha virt. eigenvalues --    3.51641   3.52019   3.52343   3.52962   3.53372
 Alpha virt. eigenvalues --    3.53822   3.54055   3.55025   3.55121   3.56124
 Alpha virt. eigenvalues --    3.56285   3.56719   3.56897   3.57126   3.57864
 Alpha virt. eigenvalues --    3.58390   3.58572   3.59013   3.59462   3.59835
 Alpha virt. eigenvalues --    3.60085   3.60989   3.61173   3.61451   3.61985
 Alpha virt. eigenvalues --    3.62514   3.62738   3.63357   3.63747   3.64674
 Alpha virt. eigenvalues --    3.65308   3.65425   3.66141   3.67004   3.67487
 Alpha virt. eigenvalues --    3.67553   3.68031   3.68979   3.69399   3.70238
 Alpha virt. eigenvalues --    3.71128   3.71176   3.71717   3.72116   3.72462
 Alpha virt. eigenvalues --    3.72675   3.72982   3.73270   3.73684   3.73910
 Alpha virt. eigenvalues --    3.74249   3.75062   3.75592   3.75902   3.76292
 Alpha virt. eigenvalues --    3.76943   3.77529   3.77774   3.78315   3.79164
 Alpha virt. eigenvalues --    3.79474   3.80163   3.80300   3.80686   3.81097
 Alpha virt. eigenvalues --    3.81656   3.81868   3.82389   3.83155   3.83455
 Alpha virt. eigenvalues --    3.83630   3.84026   3.84457   3.84852   3.85932
 Alpha virt. eigenvalues --    3.86214   3.86774   3.86886   3.87642   3.88139
 Alpha virt. eigenvalues --    3.88481   3.88806   3.89879   3.90244   3.90641
 Alpha virt. eigenvalues --    3.90936   3.91837   3.92033   3.92701   3.93039
 Alpha virt. eigenvalues --    3.94329   3.94741   3.95129   3.95399   3.95783
 Alpha virt. eigenvalues --    3.96407   3.96738   3.97643   3.97751   3.98059
 Alpha virt. eigenvalues --    3.98416   3.98503   3.99158   3.99421   3.99766
 Alpha virt. eigenvalues --    4.00202   4.00918   4.01421   4.01907   4.02491
 Alpha virt. eigenvalues --    4.02667   4.02987   4.03527   4.03739   4.04494
 Alpha virt. eigenvalues --    4.04803   4.05556   4.05834   4.06183   4.06410
 Alpha virt. eigenvalues --    4.06582   4.06780   4.07641   4.07822   4.08242
 Alpha virt. eigenvalues --    4.09014   4.09437   4.09972   4.10013   4.10455
 Alpha virt. eigenvalues --    4.10946   4.11086   4.11778   4.11976   4.12468
 Alpha virt. eigenvalues --    4.12839   4.13502   4.14044   4.14561   4.14822
 Alpha virt. eigenvalues --    4.15085   4.15558   4.15920   4.16193   4.16988
 Alpha virt. eigenvalues --    4.17329   4.17681   4.17983   4.18724   4.19012
 Alpha virt. eigenvalues --    4.19655   4.19981   4.20751   4.20923   4.21353
 Alpha virt. eigenvalues --    4.21899   4.22309   4.22756   4.23382   4.23747
 Alpha virt. eigenvalues --    4.24695   4.25001   4.25321   4.25606   4.26234
 Alpha virt. eigenvalues --    4.26269   4.26447   4.26619   4.27439   4.28067
 Alpha virt. eigenvalues --    4.28558   4.29077   4.29384   4.29461   4.30114
 Alpha virt. eigenvalues --    4.30664   4.30909   4.31259   4.31788   4.32087
 Alpha virt. eigenvalues --    4.32451   4.32903   4.33039   4.34353   4.34523
 Alpha virt. eigenvalues --    4.34964   4.35086   4.35888   4.36419   4.36905
 Alpha virt. eigenvalues --    4.37479   4.37828   4.38345   4.38490   4.39040
 Alpha virt. eigenvalues --    4.39441   4.39490   4.40244   4.40773   4.41172
 Alpha virt. eigenvalues --    4.41727   4.42022   4.42167   4.43550   4.43694
 Alpha virt. eigenvalues --    4.45366   4.46091   4.46271   4.46650   4.47285
 Alpha virt. eigenvalues --    4.48162   4.49510   4.49708   4.49969   4.50188
 Alpha virt. eigenvalues --    4.50770   4.51433   4.51645   4.52386   4.53806
 Alpha virt. eigenvalues --    4.54726   4.55203   4.55527   4.55569   4.56526
 Alpha virt. eigenvalues --    4.56872   4.57833   4.58489   4.59956   4.60333
 Alpha virt. eigenvalues --    4.61095   4.62703   4.63187   4.64061   4.65300
 Alpha virt. eigenvalues --    4.66503   4.69178   4.69438   4.69652   4.70183
 Alpha virt. eigenvalues --    4.70776   4.71549   4.72488   4.73836   4.74196
 Alpha virt. eigenvalues --    4.74860   4.75289   4.76214   4.77140   4.77777
 Alpha virt. eigenvalues --    4.78358   4.78628   4.79620   4.80093   4.80434
 Alpha virt. eigenvalues --    4.81940   4.82425   4.83230   4.83941   4.84619
 Alpha virt. eigenvalues --    4.85190   4.86279   4.86477   4.86593   4.86897
 Alpha virt. eigenvalues --    4.87504   4.88497   4.88912   4.89002   4.89504
 Alpha virt. eigenvalues --    4.90014   4.90094   4.92841   4.93602   4.94060
 Alpha virt. eigenvalues --    4.94385   4.96221   4.96890   4.97269   4.97518
 Alpha virt. eigenvalues --    4.98237   4.98780   4.98959   4.99491   4.99650
 Alpha virt. eigenvalues --    5.00581   5.00760   5.01190   5.01477   5.01574
 Alpha virt. eigenvalues --    5.02297   5.02509   5.03456   5.03806   5.04188
 Alpha virt. eigenvalues --    5.04703   5.05931   5.06030   5.06626   5.07222
 Alpha virt. eigenvalues --    5.08878   5.10358   5.10632   5.11715   5.12480
 Alpha virt. eigenvalues --    5.12883   5.13124   5.13606   5.13826   5.14242
 Alpha virt. eigenvalues --    5.14513   5.14836   5.15021   5.15881   5.15986
 Alpha virt. eigenvalues --    5.17198   5.17765   5.18094   5.18461   5.19260
 Alpha virt. eigenvalues --    5.19584   5.20002   5.20260   5.20472   5.20823
 Alpha virt. eigenvalues --    5.21163   5.21647   5.22139   5.22618   5.22751
 Alpha virt. eigenvalues --    5.22948   5.24059   5.24861   5.25091   5.25409
 Alpha virt. eigenvalues --    5.25629   5.25758   5.26063   5.26241   5.27257
 Alpha virt. eigenvalues --    5.28021   5.28316   5.29009   5.29746   5.30168
 Alpha virt. eigenvalues --    5.30268   5.30919   5.31384   5.31841   5.32240
 Alpha virt. eigenvalues --    5.32454   5.32745   5.33471   5.33662   5.34577
 Alpha virt. eigenvalues --    5.36286   5.36533   5.37115   5.37910   5.38465
 Alpha virt. eigenvalues --    5.39242   5.39511   5.40200   5.41178   5.41269
 Alpha virt. eigenvalues --    5.41468   5.42917   5.43833   5.44298   5.44761
 Alpha virt. eigenvalues --    5.45184   5.45746   5.46047   5.46416   5.46863
 Alpha virt. eigenvalues --    5.47270   5.48069   5.48226   5.48610   5.50331
 Alpha virt. eigenvalues --    5.50751   5.51048   5.52240   5.52547   5.54470
 Alpha virt. eigenvalues --    5.54845   5.56254   5.57060   5.58459   5.59400
 Alpha virt. eigenvalues --    5.59685   5.60426   5.60825   5.61880   5.62043
 Alpha virt. eigenvalues --    5.63155   5.65768   5.66796   5.67205   5.68223
 Alpha virt. eigenvalues --    5.73426   5.74044   5.74557   5.75348   5.75515
 Alpha virt. eigenvalues --    5.75915   5.76716   5.77120   5.77630   5.78025
 Alpha virt. eigenvalues --    5.79064   5.80264   5.89975   5.90186   5.91988
 Alpha virt. eigenvalues --    5.92348   5.93001   5.93244   5.93457   5.95157
 Alpha virt. eigenvalues --    5.95395   5.96024   5.96673   5.97131   5.97738
 Alpha virt. eigenvalues --    5.98446   5.98669   5.99229   6.00948   6.01089
 Alpha virt. eigenvalues --    6.02232   6.02502   6.02873   6.04015   6.05125
 Alpha virt. eigenvalues --    6.05276   6.06439   6.07678   6.08258   6.08451
 Alpha virt. eigenvalues --    6.09381   6.10741   6.12083   6.12592   6.13049
 Alpha virt. eigenvalues --    6.15999   6.17998   6.18590   6.24174   6.24826
 Alpha virt. eigenvalues --    6.25062   6.26030   6.40605   6.42913   6.43258
 Alpha virt. eigenvalues --    6.45858   6.47057   6.49356   6.50282   6.53942
 Alpha virt. eigenvalues --    6.56954   6.57059   6.58362   6.60853   6.81057
 Alpha virt. eigenvalues --    6.81423   6.81906   6.82472   6.92082   6.93672
 Alpha virt. eigenvalues --    6.94468   6.98200   7.10736   7.11962   7.14225
 Alpha virt. eigenvalues --    7.14666   7.16100   7.16755   7.19836   7.22646
 Alpha virt. eigenvalues --    9.51234   9.60365   9.64263   9.93833  10.30137
 Alpha virt. eigenvalues --   11.51261  11.55541  11.56001  11.70716  11.91741
 Alpha virt. eigenvalues --   11.93315  11.97556  12.13313  12.26923  12.33512
 Alpha virt. eigenvalues --   12.40095  12.53698  12.72446  12.74918  12.82452
 Alpha virt. eigenvalues --   12.89991  13.00251  13.03751  13.12909  13.17231
 Alpha virt. eigenvalues --   13.60356  13.62776  13.72048  13.74102  18.79757
 Alpha virt. eigenvalues --   19.27927
          Condensed to atoms (all electrons):
 Mulliken charges:
               1
     1  Pb   1.094885
     2  Br  -0.686563
     3  Br  -0.677384
     4  O   -0.512346
     5  C    0.237197
     6  C   -0.175716
     7  N   -0.005408
     8  C   -0.195000
     9  C   -0.109798
    10  C   -0.236832
    11  H    0.125539
    12  H    0.112911
    13  H    0.125052
    14  H    0.115429
    15  H    0.130040
    16  H    0.118283
    17  H    0.115512
    18  H    0.119679
    19  H    0.111317
    20  O   -0.517310
    21  C    0.267628
    22  C   -0.191047
    23  N   -0.027820
    24  C   -0.198878
    25  C   -0.091312
    26  C   -0.253076
    27  H    0.130553
    28  H    0.129235
    29  H    0.129314
    30  H    0.107463
    31  H    0.121510
    32  H    0.121302
    33  H    0.116426
    34  H    0.115753
    35  H    0.113758
    36  O   -0.514685
    37  C    0.289399
    38  C   -0.177757
    39  N   -0.031780
    40  C   -0.189687
    41  C   -0.078873
    42  C   -0.214455
    43  H    0.125864
    44  H    0.113005
    45  H    0.117319
    46  H    0.091537
    47  H    0.092764
    48  H    0.113582
    49  H    0.109553
    50  H    0.110145
    51  H    0.104551
    52  O   -0.518567
    53  C    0.270829
    54  C   -0.153504
    55  N   -0.027961
    56  C   -0.208721
    57  C   -0.098648
    58  C   -0.234786
    59  H    0.124720
    60  H    0.121061
    61  H    0.121294
    62  H    0.126445
    63  H    0.068068
    64  H    0.118523
    65  H    0.119658
    66  H    0.115720
    67  H    0.115092
 Sum of Mulliken charges =  -0.00000
 Mulliken charges with hydrogens summed into heavy atoms:
               1
     1  Pb   1.094885
     2  Br  -0.686563
     3  Br  -0.677384
     4  O   -0.512346
     5  C    0.237197
     6  C    0.069753
     7  N   -0.005408
     8  C    0.038795
     9  C    0.121198
    10  C    0.126670
    20  O   -0.517310
    21  C    0.267628
    22  C    0.037926
    23  N   -0.027820
    24  C    0.038851
    25  C    0.138200
    26  C    0.136026
    36  O   -0.514685
    37  C    0.289399
    38  C    0.006543
    39  N   -0.031780
    40  C    0.033449
    41  C    0.135823
    42  C    0.141733
    52  O   -0.518567
    53  C    0.270829
    54  C    0.041009
    55  N   -0.027961
    56  C    0.029460
    57  C    0.132163
    58  C    0.132289
 Electronic spatial extent (au):  <R**2>=          15078.8363
 Charge=             -0.0000 electrons
 Dipole moment (field-independent basis, Debye):
    X=             15.0812    Y=             22.3930    Z=              1.4223  Tot=             27.0354
 Quadrupole moment (field-independent basis, Debye-Ang):
   XX=           -138.1634   YY=           -200.0104   ZZ=           -234.1777
   XY=            -31.9613   XZ=             -1.9547   YZ=            -11.4098
 Traceless Quadrupole moment (field-independent basis, Debye-Ang):
   XX=             52.6204   YY=             -9.2266   ZZ=            -43.3939
   XY=            -31.9613   XZ=             -1.9547   YZ=            -11.4098
 Octapole moment (field-independent basis, Debye-Ang**2):
  XXX=           -107.6096  YYY=            -11.9441  ZZZ=            -56.2523  XYY=             57.7800
  XXY=             18.5454  XXZ=             32.2965  XZZ=             57.7913  YZZ=             17.4959
  YYZ=             50.9024  XYZ=              4.6304
 Hexadecapole moment (field-independent basis, Debye-Ang**3):
 XXXX=          -9235.1316 YYYY=          -6330.9040 ZZZZ=          -4212.7342 XXXY=           -295.6358
 XXXZ=            -32.3217 YYYX=             30.8992 YYYZ=            -65.8915 ZZZX=             36.9721
 ZZZY=             70.5478 XXYY=          -2594.3134 XXZZ=          -2427.9642 YYZZ=          -1704.2241
 XXYZ=            -46.5601 YYXZ=            -39.2595 ZZXY=             20.2887
 N-N= 3.293097264830D+03 E-N=-9.678538833611D+03  KE= 1.303717307514D+03
 Unable to Open any file for archive entry.
 1\1\GINC-MPCL003\SP\RCAM-B3LYP TD-FC\Gen\C20H36Br2N4O4Pb1\EDBA4025\25-
 Nov-2020\0\\# cam-b3lyp/gen pseudo=read TD=NStates=10 Geom=Check Guess
 =Read empiricaldispersion=gd3bj SCRF=(read)\\PbBr2_nmp\\0,1\Pb,0,-0.42
 2643749,-0.8237867087,-0.2422237778\Br,0,-2.0091694631,-2.9119993116,-
 1.7244350741\Br,0,-1.2639461553,-1.0898091255,2.6846383984\O,0,0.30923
 74041,0.3111339279,-2.3593531608\C,0,1.288114294,1.099357178,-2.418084
 9829\C,0,2.7556737898,0.721807384,-2.4780538353\N,0,1.187715174,2.4507
 241771,-2.4027056449\C,0,3.4657409946,2.0296394283,-2.8616794538\C,0,2
 .482086246,3.1339088223,-2.4222489455\C,0,-0.0613959756,3.164079461,-2
 .2296349813\H,0,-0.8547884601,2.4280623781,-2.0041783539\H,0,0.0259401
 236,3.8786218495,-1.3852183327\H,0,-0.3183893846,3.7390168489,-3.14327
 09655\H,0,3.0224141692,0.3649805526,-1.4610977601\H,0,2.9191795991,-0.
 1155943645,-3.1807828157\H,0,4.4559947722,2.1475157403,-2.3853385405\H
 ,0,3.6079012163,2.0752109736,-3.959016219\H,0,2.4535492324,3.995540442
 2,-3.1185071641\H,0,2.7047197088,3.5265267996,-1.404528341\O,0,1.53286
 71671,0.6841854621,0.5698602328\C,0,1.4304646847,1.8232646948,1.092379
 9738\C,0,0.1649286031,2.5017607831,1.5767118598\N,0,2.4875038984,2.637
 2663331,1.3433387876\C,0,0.5935405215,3.9574362282,1.8141644379\C,0,2.
 1127327612,3.8626252283,2.0545710283\C,0,3.8693324832,2.2373417213,1.1
 691363929\H,0,3.8839377479,1.258822223,0.6560120705\H,0,4.375574372,2.
 1430252665,2.1529673178\H,0,4.4183128312,2.9849750187,0.5619825717\H,0
 ,-0.143474107,1.9799371317,2.5088578046\H,0,-0.6577820113,2.3607988602
 ,0.850216598\H,0,0.0698493516,4.4381763805,2.6597056863\H,0,0.39944548
 67,4.5635179345,0.9064130024\H,0,2.675811596,4.7270195737,1.650721034\
 H,0,2.3673139816,3.7616214496,3.1334187313\O,0,-2.1270403041,1.1031000
 908,-0.4180725354\C,0,-3.3394828354,1.0501605499,-0.0767253378\C,0,-4.
 1458827932,-0.1889464153,0.2552122428\N,0,-4.1273173385,2.1403360504,0
 .0830359703\C,0,-5.598790373,0.3099871718,0.2664870686\C,0,-5.46918868
 53,1.8140831759,0.5733522271\C,0,-3.6533913276,3.5052632388,-0.0146066
 179\H,0,-2.6229631879,3.4896959869,-0.4118134078\H,0,-3.654383381,3.99
 39041618,0.98257513\H,0,-4.3038988525,4.0912267762,-0.69442094\H,0,-3.
 7945363196,-0.5389294999,1.2516329786\H,0,-3.9312314032,-1.0030055568,
 -0.4644395985\H,0,-6.2367318287,-0.2093093045,1.0040447974\H,0,-6.0522
 316931,0.1743415424,-0.735280172\H,0,-6.2272501094,2.4353554811,0.0565
 468434\H,0,-5.5323270508,2.0341227728,1.6628295884\O,0,1.6895302164,-2
 .2099799982,-0.3600276493\C,0,2.6072027167,-2.0991266559,0.4941141001\
 C,0,2.4616986186,-2.0507088429,2.0029080063\N,0,3.9281018148,-2.057812
 2765,0.1859298029\C,0,3.8378378714,-1.5755882284,2.4889852546\C,0,4.79
 61148672,-2.0143867754,1.3648810591\C,0,4.4492014064,-2.2603148072,-1.
 1502180512\H,0,3.5916642282,-2.3370937869,-1.8422348908\H,0,5.04701412
 97,-3.1945646187,-1.1966983178\H,0,5.0970056492,-1.412114323,-1.450392
 7489\H,0,2.2307634754,-3.0850558354,2.3396648677\H,0,1.6079828009,-1.4
 136024081,2.2999702583\H,0,4.1295722524,-1.9936071644,3.4690898928\H,0
 ,3.8428417385,-0.471014943,2.5710795253\H,0,5.630817135,-1.3043969311,
 1.1985054757\H,0,5.2354156578,-3.0210693698,1.5468875993\\Version=ES64
 L-G16RevC.01\State=1-A\HF=-1333.6448793\RMSD=2.578e-09\PG=C01 [X(C20H3
 6Br2N4O4Pb1)]\\@
 The archive entry for this job was punched.


 THE CHYMISTS ARE A STRANGE CLASS OF MORTALS IMPELLED
 BY AN ALMOST INSANE IMPULSE TO SEEK THEIR PLEASURE
 AMONG SMOKE AND VAPOR, SOOT AND FLAME, POISONS AND
 POVERTY; YET AMONG ALL THESE EVILS I SEEM TO LIVE
 SO SWEETLY, THAT I MAY DIE IF I WOULD CHANGE PLACES
 WITH THE PERSIAN KING.
   --  JOHANN JOACHIM BECHER, 1635-1682
 ACTA LABORATORII CHYMICA MONACENSIS, 1669
 Job cpu time:       1 days 19 hours 55 minutes 11.5 seconds.
 Elapsed time:       0 days  6 hours 17 minutes 45.3 seconds.
 File lengths (MBytes):  RWF=   8360 Int=      0 D2E=      0 Chk=    656 Scr=      1
 Normal termination of Gaussian 16 at Wed Nov 25 17:17:56 2020.
