 Entering Gaussian System, Link 0=g16
 Input=02-PbCl2_acn_23592498.com
 Output=02-PbCl2_acn_23592498.log
 Initial command:
 /cm/shared/uniol/software/gaussian/g16.c01/g16/l1.exe "/scratch/23592498_edba4025/Gau-27692.inp" -scrdir="/scratch/23592498_edba4025/"
 Entering Link 1 = /cm/shared/uniol/software/gaussian/g16.c01/g16/l1.exe PID=     27697.
  
 Copyright (c) 1988-2019, Gaussian, Inc.  All Rights Reserved.
  
 This is part of the Gaussian(R) 16 program.  It is based on
 the Gaussian(R) 09 system (copyright 2009, Gaussian, Inc.),
 the Gaussian(R) 03 system (copyright 2003, Gaussian, Inc.),
 the Gaussian(R) 98 system (copyright 1998, Gaussian, Inc.),
 the Gaussian(R) 94 system (copyright 1995, Gaussian, Inc.),
 the Gaussian 92(TM) system (copyright 1992, Gaussian, Inc.),
 the Gaussian 90(TM) system (copyright 1990, Gaussian, Inc.),
 the Gaussian 88(TM) system (copyright 1988, Gaussian, Inc.),
 the Gaussian 86(TM) system (copyright 1986, Carnegie Mellon
 University), and the Gaussian 82(TM) system (copyright 1983,
 Carnegie Mellon University). Gaussian is a federally registered
 trademark of Gaussian, Inc.
  
 This software contains proprietary and confidential information,
 including trade secrets, belonging to Gaussian, Inc.
  
 This software is provided under written license and may be
 used, copied, transmitted, or stored only in accord with that
 written license.
  
 The following legend is applicable only to US Government
 contracts under FAR:
  
                    RESTRICTED RIGHTS LEGEND
  
 Use, reproduction and disclosure by the US Government is
 subject to restrictions as set forth in subparagraphs (a)
 and (c) of the Commercial Computer Software - Restricted
 Rights clause in FAR 52.227-19.
  
 Gaussian, Inc.
 340 Quinnipiac St., Bldg. 40, Wallingford CT 06492
  
  
 ---------------------------------------------------------------
 Warning -- This program may not be used in any manner that
 competes with the business of Gaussian, Inc. or will provide
 assistance to any competitor of Gaussian, Inc.  The licensee
 of this program is prohibited from giving any competitor of
 Gaussian, Inc. access to this program.  By using this program,
 the user acknowledges that Gaussian, Inc. is engaged in the
 business of creating and licensing software in the field of
 computational chemistry and represents and warrants to the
 licensee that it is not a competitor of Gaussian, Inc. and that
 it will not use this program in any manner prohibited above.
 ---------------------------------------------------------------
  

 Cite this work as:
 Gaussian 16, Revision C.01,
 M. J. Frisch, G. W. Trucks, H. B. Schlegel, G. E. Scuseria, 
 M. A. Robb, J. R. Cheeseman, G. Scalmani, V. Barone, 
 G. A. Petersson, H. Nakatsuji, X. Li, M. Caricato, A. V. Marenich, 
 J. Bloino, B. G. Janesko, R. Gomperts, B. Mennucci, H. P. Hratchian, 
 J. V. Ortiz, A. F. Izmaylov, J. L. Sonnenberg, D. Williams-Young, 
 F. Ding, F. Lipparini, F. Egidi, J. Goings, B. Peng, A. Petrone, 
 T. Henderson, D. Ranasinghe, V. G. Zakrzewski, J. Gao, N. Rega, 
 G. Zheng, W. Liang, M. Hada, M. Ehara, K. Toyota, R. Fukuda, 
 J. Hasegawa, M. Ishida, T. Nakajima, Y. Honda, O. Kitao, H. Nakai, 
 T. Vreven, K. Throssell, J. A. Montgomery, Jr., J. E. Peralta, 
 F. Ogliaro, M. J. Bearpark, J. J. Heyd, E. N. Brothers, K. N. Kudin, 
 V. N. Staroverov, T. A. Keith, R. Kobayashi, J. Normand, 
 K. Raghavachari, A. P. Rendell, J. C. Burant, S. S. Iyengar, 
 J. Tomasi, M. Cossi, J. M. Millam, M. Klene, C. Adamo, R. Cammi, 
 J. W. Ochterski, R. L. Martin, K. Morokuma, O. Farkas, 
 J. B. Foresman, and D. J. Fox, Gaussian, Inc., Wallingford CT, 2019.
 
 ******************************************
 Gaussian 16:  ES64L-G16RevC.01  3-Jul-2019
                15-Apr-2021 
 ******************************************
 %oldChk=01-PbCl2_acn
 %chk=02-PbCl2_acn
 %mem=16GB
 %NProcShared=5
 Will use up to    5 processors via shared memory.
 Copying data from "01-PbCl2_acn.chk" to current chk file "02-PbCl2_acn.chk"
 IOpt=  2 FromEx=T IUOpen= 4 IOptOp= 5 NList=   0 IFRang= 0 IUIn= 4 IUOut= 2.
 ----------------------------------------------------------------------
 # cam-b3lyp/gen pseudo=read TD=NStates=10 Geom=Check Guess=Read empiri
 caldispersion=gd3bj SCRF=(Solvent=Acetonitrile)
 ----------------------------------------------------------------------
 1/29=2,38=1,172=1/1;
 2/12=2,40=1/2;
 3/5=7,11=9,14=-4,16=1,17=8,25=1,30=1,70=2201,72=2,74=-40,116=-2,124=41/1,2,3,8;
 4/5=1/1;
 5/5=2,38=6,53=2/2;
 8/6=1,10=1,108=10/1;
 9/41=10,42=1,70=2/14;
 6/7=2,8=2,9=2,10=2/1;
 99/5=1,9=1/99;
 ---------
 PbCl2_acn
 ---------
 Structure from the checkpoint file:  "02-PbCl2_acn.chk"
 Charge =  0 Multiplicity = 1
 Redundant internal coordinates found in file.  (old form).
 Pb,0,-0.3869446905,-0.0226886066,-0.4878831731
 Cl,0,-0.8582043858,-1.9454327458,1.2412440432
 Cl,0,-1.0266180917,1.8523902302,1.2481332058
 C,0,1.9310154504,3.7153571389,0.0940339668
 H,0,2.9703940195,3.5105572825,0.4155926306
 H,0,1.8483921116,4.7743629793,-0.2171922401
 H,0,1.2352920919,3.5224987308,0.9366954519
 C,0,1.5614735318,2.8355499352,-1.0004142632
 N,0,1.238160018,2.0999780263,-1.8592755934
 C,0,2.2109693006,-3.5743215122,0.045449739
 H,0,3.2284110735,-3.2893168987,0.3762059801
 H,0,2.2178558624,-4.6315222803,-0.2822912699
 H,0,1.49766171,-3.4518838358,0.8867063453
 C,0,1.7751524033,-2.710579928,-1.0372836154
 N,0,1.3964640878,-1.9891374492,-1.8854732786
 C,0,-4.2404215005,-0.0911467346,1.3887085258
 H,0,-5.3053587104,0.2077275275,1.351983338
 H,0,-4.1475922643,-1.0833758324,1.8703761163
 H,0,-3.662306209,0.6523589138,1.9739508212
 C,0,-3.6792933315,-0.1452073078,0.0522027012
 N,0,-3.1875768067,-0.1781107947,-1.0162034321
 C,0,4.1663966034,0.0640920776,1.9878041891
 H,0,3.9888847861,0.098087064,3.0798876098
 H,0,4.7310114875,-0.8553190846,1.7387951699
 H,0,4.7604737507,0.9486631409,1.6874224238
 C,0,2.8986302397,0.064149189,1.2840690997
 N,0,1.8758774624,0.0627707749,0.7135255085
 Recover connectivity data from disk.
                           ----------------------------
                           !    Current Parameters    !
                           ! (Angstroms and Degrees)  !
 --------------------------                            --------------------------
 ! Name  Definition              Value                                          !
 --------------------------------------------------------------------------------
 ! R1    R(1,2)                  2.6285                                         !
 ! R2    R(1,3)                  2.6342                                         !
 ! R3    R(1,9)                  3.0046                                         !
 ! R4    R(1,15)                 3.0001                                         !
 ! R5    R(1,21)                 2.8543                                         !
 ! R6    R(1,27)                 2.5634                                         !
 ! R7    R(2,13)                 2.8187                                         !
 ! R8    R(3,7)                  2.8289                                         !
 ! R9    R(3,19)                 2.9856                                         !
 ! R10   R(4,5)                  1.1071                                         !
 ! R11   R(4,6)                  1.1069                                         !
 ! R12   R(4,7)                  1.1096                                         !
 ! R13   R(4,8)                  1.452                                          !
 ! R14   R(8,9)                  1.1761                                         !
 ! R15   R(10,11)                1.1072                                         !
 ! R16   R(10,12)                1.1069                                         !
 ! R17   R(10,13)                1.1097                                         !
 ! R18   R(10,14)                1.452                                          !
 ! R19   R(14,15)                1.1761                                         !
 ! R20   R(16,17)                1.1067                                         !
 ! R21   R(16,18)                1.1069                                         !
 ! R22   R(16,19)                1.1088                                         !
 ! R23   R(16,20)                1.4505                                         !
 ! R24   R(20,21)                1.1766                                         !
 ! R25   R(22,23)                1.1069                                         !
 ! R26   R(22,24)                1.1073                                         !
 ! R27   R(22,25)                1.1071                                         !
 ! R28   R(22,26)                1.45                                           !
 ! R29   R(26,27)                1.1711                                         !
 ! A1    A(2,1,3)               92.5003                                         !
 ! A2    A(2,1,9)              156.0685                                         !
 ! A3    A(2,1,15)              86.1905                                         !
 ! A4    A(2,1,21)              84.607                                          !
 ! A5    A(2,1,27)              82.781                                          !
 ! A6    A(3,1,9)               85.9435                                         !
 ! A7    A(3,1,15)             156.626                                          !
 ! A8    A(3,1,21)              85.5536                                         !
 ! A9    A(3,1,27)              83.2092                                         !
 ! A10   A(9,1,15)              85.9237                                         !
 ! A11   A(9,1,21)             118.9928                                         !
 ! A12   A(9,1,27)              73.3163                                         !
 ! A13   A(15,1,21)            117.4747                                         !
 ! A14   A(15,1,27)             73.4675                                         !
 ! A15   A(21,1,27)            162.6923                                         !
 ! A16   A(1,2,13)              99.1115                                         !
 ! A17   A(1,3,7)               98.8314                                         !
 ! A18   A(1,3,19)              95.0762                                         !
 ! A19   A(5,4,6)              109.1921                                         !
 ! A20   A(5,4,7)              109.6279                                         !
 ! A21   A(5,4,8)              110.2287                                         !
 ! A22   A(6,4,7)              109.4515                                         !
 ! A23   A(6,4,8)              110.4125                                         !
 ! A24   A(7,4,8)              107.9091                                         !
 ! A25   A(3,7,4)              133.4354                                         !
 ! A26   A(1,9,8)              104.9055                                         !
 ! A27   A(11,10,12)           109.1844                                         !
 ! A28   A(11,10,13)           109.6221                                         !
 ! A29   A(11,10,14)           110.2101                                         !
 ! A30   A(12,10,13)           109.5023                                         !
 ! A31   A(12,10,14)           110.4412                                         !
 ! A32   A(13,10,14)           107.8618                                         !
 ! A33   A(2,13,10)            133.7521                                         !
 ! A34   A(1,15,14)            104.9219                                         !
 ! A35   A(17,16,18)           109.7086                                         !
 ! A36   A(17,16,19)           109.763                                          !
 ! A37   A(17,16,20)           110.5936                                         !
 ! A38   A(18,16,19)           109.1279                                         !
 ! A39   A(18,16,20)           109.5789                                         !
 ! A40   A(19,16,20)           108.0357                                         !
 ! A41   A(3,19,16)            126.9751                                         !
 ! A42   A(1,21,20)            103.9138                                         !
 ! A43   A(23,22,24)           109.216                                          !
 ! A44   A(23,22,25)           109.2204                                         !
 ! A45   A(23,22,26)           109.7924                                         !
 ! A46   A(24,22,25)           109.1958                                         !
 ! A47   A(24,22,26)           109.6767                                         !
 ! A48   A(25,22,26)           109.7223                                         !
 ! A49   L(7,3,19,1,-1)        193.9076                                         !
 ! A50   L(4,8,9,2,-1)         177.9585                                         !
 ! A51   L(10,14,15,2,-1)      177.9381                                         !
 ! A52   L(16,20,21,2,-1)      178.5995                                         !
 ! A53   L(22,26,27,4,-1)      180.0503                                         !
 ! A54   L(1,27,26,4,-1)       182.0044                                         !
 ! A55   L(7,3,19,1,-2)        182.2351                                         !
 ! A56   L(4,8,9,2,-2)         179.461                                          !
 ! A57   L(10,14,15,2,-2)      179.3522                                         !
 ! A58   L(16,20,21,2,-2)      181.4418                                         !
 ! A59   L(22,26,27,4,-2)      179.861                                          !
 ! A60   L(1,27,26,4,-2)       179.1078                                         !
 ! D1    D(3,1,2,13)          -131.9469                                         !
 ! D2    D(9,1,2,13)           -46.3149                                         !
 ! D3    D(15,1,2,13)           24.6794                                         !
 ! D4    D(21,1,2,13)          142.7605                                         !
 ! D5    D(27,1,2,13)          -49.1181                                         !
 ! D6    D(2,1,3,7)            130.4856                                         !
 ! D7    D(2,1,3,19)           -51.7495                                         !
 ! D8    D(9,1,3,7)            -25.5931                                         !
 ! D9    D(9,1,3,19)           152.1718                                         !
 ! D10   D(15,1,3,7)            44.3038                                         !
 ! D11   D(15,1,3,19)         -137.9312                                         !
 ! D12   D(21,1,3,7)          -145.1244                                         !
 ! D13   D(21,1,3,19)           32.6405                                         !
 ! D14   D(27,1,3,7)            48.0633                                         !
 ! D15   D(27,1,3,19)         -134.1718                                         !
 ! D16   D(2,1,9,8)            -57.8292                                         !
 ! D17   D(3,1,9,8)             29.1911                                         !
 ! D18   D(15,1,9,8)          -128.877                                          !
 ! D19   D(21,1,9,8)           111.8281                                         !
 ! D20   D(27,1,9,8)           -54.926                                          !
 ! D21   D(2,1,15,14)          -28.3784                                         !
 ! D22   D(3,1,15,14)           59.1079                                         !
 ! D23   D(9,1,15,14)          129.0087                                         !
 ! D24   D(21,1,15,14)        -110.2846                                         !
 ! D25   D(27,1,15,14)          55.2136                                         !
 ! D26   D(2,1,21,20)           49.373                                          !
 ! D27   D(3,1,21,20)          -43.567                                          !
 ! D28   D(9,1,21,20)         -126.4319                                         !
 ! D29   D(15,1,21,20)         132.2322                                         !
 ! D30   D(27,1,21,20)           6.0272                                         !
 ! D31   D(2,1,22,23)          -49.4141                                         !
 ! D32   D(2,1,22,24)           69.9365                                         !
 ! D33   D(2,1,22,25)         -169.8368                                         !
 ! D34   D(3,1,22,23)           44.0848                                         !
 ! D35   D(3,1,22,24)          163.4354                                         !
 ! D36   D(3,1,22,25)          -76.3379                                         !
 ! D37   D(9,1,22,23)          131.6741                                         !
 ! D38   D(9,1,22,24)         -108.9753                                         !
 ! D39   D(9,1,22,25)           11.2514                                         !
 ! D40   D(15,1,22,23)        -137.918                                          !
 ! D41   D(15,1,22,24)         -18.5674                                         !
 ! D42   D(15,1,22,25)         101.6593                                         !
 ! D43   D(21,1,22,23)          -8.7041                                         !
 ! D44   D(21,1,22,24)         110.6465                                         !
 ! D45   D(21,1,22,25)        -129.1268                                         !
 ! D46   D(1,2,13,10)          -25.6877                                         !
 ! D47   D(1,3,7,4)             27.8272                                         !
 ! D48   D(1,3,19,16)          -19.1459                                         !
 ! D49   D(5,4,7,3)           -123.604                                          !
 ! D50   D(6,4,7,3)            116.6542                                         !
 ! D51   D(8,4,7,3)             -3.5349                                         !
 ! D52   D(5,4,9,1)            100.2177                                         !
 ! D53   D(6,4,9,1)           -138.4614                                         !
 ! D54   D(7,4,9,1)            -19.0604                                         !
 ! D55   D(11,10,13,2)         122.0126                                         !
 ! D56   D(12,10,13,2)        -118.2273                                         !
 ! D57   D(14,10,13,2)           1.9977                                         !
 ! D58   D(11,10,15,1)         -99.8369                                         !
 ! D59   D(12,10,15,1)         138.8341                                         !
 ! D60   D(13,10,15,1)          19.3736                                         !
 ! D61   D(17,16,19,3)        -134.7713                                         !
 ! D62   D(18,16,19,3)         104.9706                                         !
 ! D63   D(20,16,19,3)         -14.1038                                         !
 ! D64   D(17,16,21,1)         160.2715                                         !
 ! D65   D(18,16,21,1)         -78.1638                                         !
 ! D66   D(19,16,21,1)          40.1675                                         !
 --------------------------------------------------------------------------------
                          Input orientation:                          
 ---------------------------------------------------------------------
 Center     Atomic      Atomic             Coordinates (Angstroms)
 Number     Number       Type             X           Y           Z
 ---------------------------------------------------------------------
      1         82           0       -0.386945   -0.022689   -0.487883
      2         17           0       -0.858204   -1.945433    1.241244
      3         17           0       -1.026618    1.852390    1.248133
      4          6           0        1.931015    3.715357    0.094034
      5          1           0        2.970394    3.510557    0.415593
      6          1           0        1.848392    4.774363   -0.217192
      7          1           0        1.235292    3.522499    0.936695
      8          6           0        1.561474    2.835550   -1.000414
      9          7           0        1.238160    2.099978   -1.859276
     10          6           0        2.210969   -3.574322    0.045450
     11          1           0        3.228411   -3.289317    0.376206
     12          1           0        2.217856   -4.631522   -0.282291
     13          1           0        1.497662   -3.451884    0.886706
     14          6           0        1.775152   -2.710580   -1.037284
     15          7           0        1.396464   -1.989137   -1.885473
     16          6           0       -4.240422   -0.091147    1.388709
     17          1           0       -5.305359    0.207728    1.351983
     18          1           0       -4.147592   -1.083376    1.870376
     19          1           0       -3.662306    0.652359    1.973951
     20          6           0       -3.679293   -0.145207    0.052203
     21          7           0       -3.187577   -0.178111   -1.016203
     22          6           0        4.166397    0.064092    1.987804
     23          1           0        3.988885    0.098087    3.079888
     24          1           0        4.731011   -0.855319    1.738795
     25          1           0        4.760474    0.948663    1.687422
     26          6           0        2.898630    0.064149    1.284069
     27          7           0        1.875877    0.062771    0.713526
 ---------------------------------------------------------------------
                    Distance matrix (angstroms):
                    1          2          3          4          5
     1  Pb   0.000000
     2  Cl   2.628481   0.000000
     3  Cl   2.634171   3.801562   0.000000
     4  C    4.436728   6.414077   3.681058   0.000000
     5  H    4.956997   6.716226   4.406671   1.107091   0.000000
     6  H    5.299218   7.389747   4.353250   1.106879   1.804580
     7  H    4.150835   5.862913   2.828868   1.109641   1.811703
     8  C    3.496934   5.808414   3.566621   1.452046   2.108499
     9  N    3.004563   5.511199   3.853117   2.627721   3.188321
    10  C    4.432572   3.674647   6.432544   7.295214   7.135071
    11  H    4.948566   4.388022   6.730727   7.129398   6.804882
    12  H    5.297981   4.358714   7.410124   8.360281   8.206511
    13  H    4.147363   2.818723   5.885401   7.223951   7.132074
    14  C    3.493031   3.565348   5.821833   6.526625   6.499385
    15  N    3.000121   3.855101   5.517984   6.061803   6.165939
    16  C    4.286673   3.859989   3.758408   7.365615   8.118811
    17  H    5.256329   4.942221   4.585120   8.139473   8.959553
    18  H    4.563871   3.458182   4.329710   7.945609   8.595717
    19  H    4.152627   3.892090   2.985588   6.648405   7.388538
    20  C    3.338602   3.551503   3.529495   6.810380   7.597039
    21  N    2.854263   3.693978   3.730938   6.526232   7.319625
    22  C    5.183578   5.462798   5.541888   4.681349   3.972454
    23  H    5.647252   5.572330   5.620336   5.121991   4.447555
    24  H    5.643124   5.716226   6.381437   5.606808   4.889940
    25  H    5.671983   6.335962   5.873681   4.266066   3.374202
    26  C    3.733947   4.260758   4.313545   3.960275   3.554874
    27  N    2.563406   3.433158   3.451525   3.705158   3.629595
                    6          7          8          9         10
     6  H    0.000000
     7  H    1.809561   0.000000
     8  C    2.110629   2.081030   0.000000
     9  N    3.197054   3.137041   1.176112   0.000000
    10  C    8.360680   7.218803   6.527031   6.063993   0.000000
    11  H    8.202409   7.119516   6.495210   6.164655   1.107165
    12  H    9.413364   8.302977   7.530186   6.982820   1.106858
    13  H    8.307391   6.979495   6.564840   6.199268   1.109735
    14  C    7.530092   6.560435   5.550367   4.909735   1.451998
    15  N    6.980855   6.194251   4.907970   4.092262   2.627678
    16  C    7.957748   6.576183   6.923543   6.735376   7.453677
    17  H    8.630911   7.344405   7.719625   7.530633   8.515052
    18  H    8.638453   7.145718   7.496189   7.283569   7.068697
    19  H    7.222176   5.770621   6.395393   6.387785   7.488612
    20  C    7.404732   6.195768   6.120339   5.733756   6.815722
    21  N    7.108192   6.088522   5.624578   5.048525   6.465729
    22  C    5.694015   4.653685   4.836947   5.245896   4.564481
    23  H    6.109010   4.888982   5.480410   5.997448   5.084819
    24  H    6.620325   5.659391   5.583167   5.820645   4.075660
    25  H    5.171437   4.428897   4.584584   5.129453   5.445497
    26  C    5.053998   3.853251   3.832429   4.096630   3.904552
    27  N    4.802717   3.525602   3.274865   3.343083   3.713092
                   11         12         13         14         15
    11  H    0.000000
    12  H    1.804538   0.000000
    13  H    1.811776   1.810188   0.000000
    14  C    2.108281   2.110929   2.080449   0.000000
    15  N    3.187740   3.197980   3.136056   1.176142   0.000000
    16  C    8.187607   8.069486   6.668745   6.995284   6.789486
    17  H    9.273979   9.093291   7.738884   8.022391   7.760269
    18  H    7.842458   7.598832   6.200510   6.795674   6.757468
    19  H    8.097628   8.221091   6.682229   7.067025   6.889399
    20  C    7.596498   7.417228   6.199304   6.125283   5.737419
    21  N    7.265212   7.042031   6.024128   5.571582   5.004885
    22  C    3.836980   5.567669   4.549357   4.750580   5.185610
    23  H    4.400309   6.067124   4.859890   5.453469   5.977622
    24  H    3.168407   4.965929   4.233527   4.459340   5.053719
    25  H    4.693291   6.440741   5.536416   5.452176   5.719512
    26  C    3.489800   4.996626   3.805667   3.788140   4.064294
    27  N    3.630375   4.810924   3.539186   3.281303   3.345887
                   16         17         18         19         20
    16  C    0.000000
    17  H    1.106691   0.000000
    18  H    1.106860   1.810001   0.000000
    19  H    1.108840   1.812226   1.805272   0.000000
    20  C    1.450529   2.111417   2.098861   2.080749   0.000000
    21  N    2.626718   3.200341   3.173874   3.139438   1.176588
    22  C    8.429567   9.494159   8.393622   7.850786   8.083638
    23  H    8.403415   9.454133   8.310297   7.750551   8.247850
    24  H    9.010723  10.099922   8.882507   8.530895   8.607095
    25  H    9.065680  10.098638   9.138725   8.432859   8.666035
    26  C    7.141507   8.205526   7.163087   6.623278   6.695551
    27  N    6.155378   7.211019   6.239723   5.710321   5.598261
                   21         22         23         24         25
    21  N    0.000000
    22  C    7.947556   0.000000
    23  H    8.267760   1.106938   0.000000
    24  H    8.411461   1.107300   1.805066   0.000000
    25  H    8.470580   1.107079   1.804934   1.804954   0.000000
    26  C    6.510903   1.449991   2.101136   2.099957   2.100362
    27  N    5.356170   2.621119   3.172651   3.169520   3.170832
                   26         27
    26  C    0.000000
    27  N    1.171130   0.000000
 Stoichiometry    C8H12Cl2N4Pb
 Framework group  C1[X(C8H12Cl2N4Pb)]
 Deg. of freedom    75
 Full point group                 C1      NOp   1
 Largest Abelian subgroup         C1      NOp   1
 Largest concise Abelian subgroup C1      NOp   1
                         Standard orientation:                         
 ---------------------------------------------------------------------
 Center     Atomic      Atomic             Coordinates (Angstroms)
 Number     Number       Type             X           Y           Z
 ---------------------------------------------------------------------
      1         82           0       -0.380353   -0.012978   -0.510621
      2         17           0       -0.862407   -1.922711    1.229911
      3         17           0       -1.007969    1.876032    1.214660
      4          6           0        1.960307    3.714389    0.048485
      5          1           0        2.998577    3.505221    0.370813
      6          1           0        1.883919    4.772035   -0.268895
      7          1           0        1.263809    3.530649    0.892542
      8          6           0        1.584997    2.830439   -1.040650
      9          7           0        1.256885    2.091818   -1.895064
     10          6           0        2.196384   -3.577002    0.042415
     11          1           0        3.215668   -3.296197    0.371086
     12          1           0        2.196767   -4.636123   -0.279141
     13          1           0        1.484198   -3.445359    0.883231
     14          6           0        1.765293   -2.716997   -1.045173
     15          7           0        1.390577   -1.998259   -1.897413
     16          6           0       -4.233343   -0.047275    1.367904
     17          1           0       -5.296479    0.257783    1.329865
     18          1           0       -4.146272   -1.037212    1.855328
     19          1           0       -3.650507    0.696147    1.948554
     20          6           0       -3.673141   -0.112522    0.031510
     21          7           0       -3.182103   -0.154629   -1.036886
     22          6           0        4.174520    0.060869    1.962665
     23          1           0        3.997699    0.102315    3.054603
     24          1           0        4.733484   -0.863363    1.718808
     25          1           0        4.773775    0.940078    1.656875
     26          6           0        2.906467    0.064442    1.259457
     27          7           0        1.883472    0.065884    0.689347
 ---------------------------------------------------------------------
 Rotational constants (GHZ):           0.3639783           0.2871260           0.2186576
 General basis read from cards:  (5D, 7F)
 ======================================================================================================
                                       Pseudopotential Parameters
 ======================================================================================================
  Center     Atomic      Valence      Angular      Power
  Number     Number     Electrons     Momentum     of R      Exponent        Coefficient   SO-Coeffient
 ======================================================================================================
    1         82            4
                                      G and up 
                                                     0      376.5803786       -0.17896050    0.00000000
                                                     1       86.4840014      -54.39723370    0.00000000
                                                     2       26.6784276     -199.70617590    0.00000000
                                                     2        9.4261986      -79.12239410    0.00000000
                                                     2        2.7101719      -24.98690200    0.00000000
                                                     2        0.8792031       -4.43979390    0.00000000
                                      S - G
                                                     0      132.4248796        2.81153860    0.00000000
                                                     1       47.2376044       65.03672050    0.00000000
                                                     2       17.6312727      212.78685450    0.00000000
                                                     2        5.4744712       72.10531750    0.00000000
                                                     2        1.2634856       33.01409400    0.00000000
                                                     2        0.7651447       -5.77084610    0.00000000
                                      P - G
                                                     0       67.8966454        4.87549110    0.00000000
                                                     1       24.9898225       63.91481020    0.00000000
                                                     2       10.7052939      148.10643580    0.00000000
                                                     2        3.2792568       47.31063010    0.00000000
                                                     2        0.8452522       21.03067020    0.00000000
                                                     2        0.6416245       -7.09307720    0.00000000
                                      D - G
                                                     0       68.8336005        3.21613880    0.00000000
                                                     1       24.2815874       55.73860860    0.00000000
                                                     2        9.4532762      121.41683510    0.00000000
                                                     2        2.4788185       19.34560640    0.00000000
                                                     2        2.4789161       15.36751680    0.00000000
                                                     2        0.5551738        6.12987240    0.00000000
                                      F - G
                                                     0      128.1021322        4.13536820    0.00000000
                                                     1       54.8029154       67.51284460    0.00000000
                                                     2       24.5529308      258.73731070    0.00000000
                                                     2        8.1144792      113.24782640    0.00000000
                                                     2        1.6931290       34.16802010    0.00000000
                                                     2        0.7670500       -6.55319560    0.00000000
    2         17
                                   No pseudopotential on this center.
    3         17
                                   No pseudopotential on this center.
    4          6
                                   No pseudopotential on this center.
    5          1
                                   No pseudopotential on this center.
    6          1
                                   No pseudopotential on this center.
    7          1
                                   No pseudopotential on this center.
    8          6
                                   No pseudopotential on this center.
    9          7
                                   No pseudopotential on this center.
   10          6
                                   No pseudopotential on this center.
   11          1
                                   No pseudopotential on this center.
   12          1
                                   No pseudopotential on this center.
   13          1
                                   No pseudopotential on this center.
   14          6
                                   No pseudopotential on this center.
   15          7
                                   No pseudopotential on this center.
   16          6
                                   No pseudopotential on this center.
   17          1
                                   No pseudopotential on this center.
   18          1
                                   No pseudopotential on this center.
   19          1
                                   No pseudopotential on this center.
   20          6
                                   No pseudopotential on this center.
   21          7
                                   No pseudopotential on this center.
   22          6
                                   No pseudopotential on this center.
   23          1
                                   No pseudopotential on this center.
   24          1
                                   No pseudopotential on this center.
   25          1
                                   No pseudopotential on this center.
   26          6
                                   No pseudopotential on this center.
   27          7
                                   No pseudopotential on this center.
 ======================================================================================================
 There are   686 symmetry adapted cartesian basis functions of A   symmetry.
 There are   604 symmetry adapted basis functions of A   symmetry.
   604 basis functions,  1028 primitive gaussians,   686 cartesian basis functions
    63 alpha electrons       63 beta electrons
       nuclear repulsion energy      1007.0810935831 Hartrees.
 NAtoms=   27 NActive=   27 NUniq=   27 SFac= 1.00D+00 NAtFMM=   60 NAOKFM=F Big=F
 Integral buffers will be    131072 words long.
 Raffenetti 1 integral format.
 Two-electron integral symmetry is turned on.
 Nuclear repulsion after empirical dispersion term =     1007.0498354258 Hartrees.
 ------------------------------------------------------------------------------
 Polarizable Continuum Model (PCM)
 =================================
 Model                : PCM.
 Atomic radii         : UFF (Universal Force Field).
 Polarization charges : Total charges.
 Charge compensation  : None.
 Solution method      : On-the-fly selection.
 Cavity type          : Scaled VdW (van der Waals Surface) (Alpha=1.100).
 Cavity algorithm     : GePol (No added spheres)
                        Default sphere list used, NSphG=   27.
                        Lebedev-Laikov grids with approx.  5.0 points / Ang**2.
                        Smoothing algorithm: York/Karplus (Gamma=1.0000).
                        Polarization charges: spherical gaussians, with
                                              point-specific exponents (IZeta= 3).
                        Self-potential: point-specific (ISelfS= 7).
                        Self-field    : sphere-specific E.n sum rule (ISelfD= 2).
 Solvent              : Acetonitrile, Eps=  35.688000 Eps(inf)=   1.806874
 ------------------------------------------------------------------------------
 One-electron integrals computed using PRISM.
   1 Symmetry operations used in ECPInt.
 ECPInt:  NShTT=   24310 NPrTT=  112432 LenC2=   20211 LenP2D=   56753.
 LDataN:  DoStor=T MaxTD1= 7 Len=  274
 NBasis=   604 RedAO= T EigKep=  5.41D-04  NBF=   604
 NBsUse=   604 1.00D-06 EigRej= -1.00D+00 NBFU=   604
 Defaulting to unpruned grid for atomic number  82.
 Initial guess from the checkpoint file:  "02-PbCl2_acn.chk"
 B after Tr=    -0.000000    0.000000   -0.000000
         Rot=    1.000000    0.000000    0.000000    0.000000 Ang=   0.00 deg.
 Requested convergence on RMS density matrix=1.00D-08 within 128 cycles.
 Requested convergence on MAX density matrix=1.00D-06.
 Requested convergence on             energy=1.00D-06.
 No special actions if energy rises.
 Defaulting to unpruned grid for atomic number  82.
 Defaulting to unpruned grid for atomic number  82.
 Defaulting to unpruned grid for atomic number  82.
 Defaulting to unpruned grid for atomic number  82.
 Defaulting to unpruned grid for atomic number  82.
 Inv3:  Mode=1 IEnd=    21692163.
 Iteration    1 A*A^-1 deviation from unit magnitude is 3.33D-15 for    214.
 Iteration    1 A*A^-1 deviation from orthogonality  is 3.34D-15 for   1829    888.
 Iteration    1 A^-1*A deviation from unit magnitude is 2.89D-15 for    214.
 Iteration    1 A^-1*A deviation from orthogonality  is 2.54D-14 for   2176   2137.
 Error on total polarization charges =  0.01587
 SCF Done:  E(RCAM-B3LYP) =  -1455.07473979     A.U. after   11 cycles
            NFock= 11  Conv=0.70D-08     -V/T= 2.0062
 DoSCS=F DFT=T ScalE2(SS,OS)=  1.000000  1.000000
 ExpMin= 5.98D-02 ExpMax= 4.56D+05 ExpMxC= 1.44D+03 IAcc=3 IRadAn=         5 AccDes= 0.00D+00
 HarFok:  IExCor=  205 AccDes= 0.00D+00 IRadAn=         5 IDoV=-2 UseB2=F ITyADJ=14
 ICtDFT= 12500011 ScaDFX=  1.000000  1.000000  1.000000  1.000000
 Defaulting to unpruned grid for atomic number  82.
 GSVD:  LWork=        -660 too small for GESVD, short by        2750 words or        2750 for optimal perf.
 Range of M.O.s used for correlation:    23   604
 NBasis=   604 NAE=    63 NBE=    63 NFC=    22 NFV=     0
 NROrb=    582 NOA=    41 NOB=    41 NVA=   541 NVB=   541

 **** Warning!!: The largest alpha MO coefficient is  0.12572847D+02

 NEqPCM:  Using non-equilibrium solvation (IEInf=1, Eps=  35.6880, EpsInf=   1.8069)
 Inv3:  Mode=1 IEnd=    21692163.
 Iteration    1 A*A^-1 deviation from unit magnitude is 3.77D-15 for   1278.
 Iteration    1 A*A^-1 deviation from orthogonality  is 1.78D-15 for   2004    219.
 Iteration    1 A^-1*A deviation from unit magnitude is 3.77D-15 for    192.
 Iteration    1 A^-1*A deviation from orthogonality  is 4.48D-14 for   2194   2137.
 Orbital symmetries:
       Occupied  (A) (A) (A) (A) (A) (A) (A) (A) (A) (A) (A) (A)
                 (A) (A) (A) (A) (A) (A) (A) (A) (A) (A) (A) (A)
                 (A) (A) (A) (A) (A) (A) (A) (A) (A) (A) (A) (A)
                 (A) (A) (A) (A) (A) (A) (A) (A) (A) (A) (A) (A)
                 (A) (A) (A) (A) (A) (A) (A) (A) (A) (A) (A) (A)
                 (A) (A) (A)
       Virtual   (A) (A) (A) (A) (A) (A) (A) (A) (A) (A) (A) (A)
                 (A) (A) (A) (A) (A) (A) (A) (A) (A) (A) (A) (A)
                 (A) (A) (A) (A) (A) (A) (A) (A) (A) (A) (A) (A)
                 (A) (A) (A) (A) (A) (A) (A) (A) (A) (A) (A) (A)
                 (A) (A) (A) (A) (A) (A) (A) (A) (A) (A) (A) (A)
                 (A) (A) (A) (A) (A) (A) (A) (A) (A) (A) (A) (A)
                 (A) (A) (A) (A) (A) (A) (A) (A) (A) (A) (A) (A)
                 (A) (A) (A) (A) (A) (A) (A) (A) (A) (A) (A) (A)
                 (A) (A) (A) (A) (A) (A) (A) (A) (A) (A) (A) (A)
                 (A) (A) (A) (A) (A) (A) (A) (A) (A) (A) (A) (A)
                 (A) (A) (A) (A) (A) (A) (A) (A) (A) (A) (A) (A)
                 (A) (A) (A) (A) (A) (A) (A) (A) (A) (A) (A) (A)
                 (A) (A) (A) (A) (A) (A) (A) (A) (A) (A) (A) (A)
                 (A) (A) (A) (A) (A) (A) (A) (A) (A) (A) (A) (A)
                 (A) (A) (A) (A) (A) (A) (A) (A) (A) (A) (A) (A)
                 (A) (A) (A) (A) (A) (A) (A) (A) (A) (A) (A) (A)
                 (A) (A) (A) (A) (A) (A) (A) (A) (A) (A) (A) (A)
                 (A) (A) (A) (A) (A) (A) (A) (A) (A) (A) (A) (A)
                 (A) (A) (A) (A) (A) (A) (A) (A) (A) (A) (A) (A)
                 (A) (A) (A) (A) (A) (A) (A) (A) (A) (A) (A) (A)
                 (A) (A) (A) (A) (A) (A) (A) (A) (A) (A) (A) (A)
                 (A) (A) (A) (A) (A) (A) (A) (A) (A) (A) (A) (A)
                 (A) (A) (A) (A) (A) (A) (A) (A) (A) (A) (A) (A)
                 (A) (A) (A) (A) (A) (A) (A) (A) (A) (A) (A) (A)
                 (A) (A) (A) (A) (A) (A) (A) (A) (A) (A) (A) (A)
                 (A) (A) (A) (A) (A) (A) (A) (A) (A) (A) (A) (A)
                 (A) (A) (A) (A) (A) (A) (A) (A) (A) (A) (A) (A)
                 (A) (A) (A) (A) (A) (A) (A) (A) (A) (A) (A) (A)
                 (A) (A) (A) (A) (A) (A) (A) (A) (A) (A) (A) (A)
                 (A) (A) (A) (A) (A) (A) (A) (A) (A) (A) (A) (A)
                 (A) (A) (A) (A) (A) (A) (A) (A) (A) (A) (A) (A)
                 (A) (A) (A) (A) (A) (A) (A) (A) (A) (A) (A) (A)
                 (A) (A) (A) (A) (A) (A) (A) (A) (A) (A) (A) (A)
                 (A) (A) (A) (A) (A) (A) (A) (A) (A) (A) (A) (A)
                 (A) (A) (A) (A) (A) (A) (A) (A) (A) (A) (A) (A)
                 (A) (A) (A) (A) (A) (A) (A) (A) (A) (A) (A) (A)
                 (A) (A) (A) (A) (A) (A) (A) (A) (A) (A) (A) (A)
                 (A) (A) (A) (A) (A) (A) (A) (A) (A) (A) (A) (A)
                 (A) (A) (A) (A) (A) (A) (A) (A) (A) (A) (A) (A)
                 (A) (A) (A) (A) (A) (A) (A) (A) (A) (A) (A) (A)
                 (A) (A) (A) (A) (A) (A) (A) (A) (A) (A) (A) (A)
                 (A) (A) (A) (A) (A) (A) (A) (A) (A) (A) (A) (A)
                 (A) (A) (A) (A) (A) (A) (A) (A) (A) (A) (A) (A)
                 (A) (A) (A) (A) (A) (A) (A) (A) (A) (A) (A) (A)
                 (A) (A) (A) (A) (A) (A) (A) (A) (A) (A) (A) (A)
                 (A)
    40 initial guesses have been made.
 Convergence on wavefunction:    0.001000000000000
 Iteration     1 Dimension    40 NMult     0 NNew     40
 CISAX will form    40 AO SS matrices at one time.
 Defaulting to unpruned grid for atomic number  82.
 Defaulting to unpruned grid for atomic number  82.
 Defaulting to unpruned grid for atomic number  82.
 Defaulting to unpruned grid for atomic number  82.
 Defaulting to unpruned grid for atomic number  82.
 New state      7 was old state      8
 New state      8 was old state      9
 New state      9 was old state     12
 New state     10 was old state      7
 Iteration     2 Dimension    60 NMult    40 NNew     20
 New state      5 was old state      6
 New state      6 was old state      7
 New state      7 was old state      5
 New state      9 was old state     10
 New state     10 was old state      9
 Iteration     3 Dimension    80 NMult    60 NNew     20
 Iteration     4 Dimension   100 NMult    80 NNew     20
 Iteration     5 Dimension   120 NMult   100 NNew     20
 Iteration     6 Dimension   140 NMult   120 NNew     20
 Iteration     7 Dimension   158 NMult   140 NNew     18
 Iteration     8 Dimension   162 NMult   158 NNew      4
 Iteration     9 Dimension   164 NMult   162 NNew      2
 ***********************************************************************
 Excited states from <AA,BB:AA,BB> singles matrix:
 ***********************************************************************
 
 Ground to excited state transition densities written to RWF  633
 Ground to excited state transition electric dipole moments (Au):
       state          X           Y           Z        Dip. S.      Osc.
         1        -1.0783      0.3615     -0.1159      1.3069      0.2024
         2        -0.2555     -1.2316     -0.0601      1.5856      0.2487
         3         0.5184      0.0335     -0.9755      1.2215      0.1949
         4         0.0365      0.0202     -0.1633      0.0284      0.0047
         5         0.4327     -0.1872      0.0072      0.2223      0.0373
         6        -0.5420      0.0981     -0.0291      0.3043      0.0511
         7         0.1478      0.5932      0.0127      0.3739      0.0629
         8        -0.1278     -0.7735      0.0150      0.6148      0.1038
         9         0.1021     -0.6446      0.0358      0.4273      0.0739
        10         0.0829      0.1609      0.0563      0.0359      0.0063
 Ground to excited state transition velocity dipole moments (Au):
       state          X           Y           Z        Dip. S.      Osc.
         1         0.1931     -0.0638      0.0140      0.0416      0.1193
         2         0.0453      0.2151      0.0087      0.0484      0.1371
         3        -0.1016     -0.0059      0.1796      0.0426      0.1186
         4        -0.0167     -0.0046      0.0597      0.0039      0.0104
         5        -0.1206      0.0456     -0.0069      0.0167      0.0442
         6         0.1531     -0.0206      0.0127      0.0240      0.0635
         7        -0.0402     -0.1369     -0.0089      0.0204      0.0540
         8         0.0376      0.1827     -0.0039      0.0348      0.0917
         9        -0.0302      0.1464     -0.0069      0.0224      0.0576
        10        -0.0247     -0.0367     -0.0100      0.0021      0.0052
 Ground to excited state transition magnetic dipole moments (Au):
       state          X           Y           Z
         1        -0.3587     -1.3837     -0.0179
         2         1.3867     -0.3809      0.0886
         3        -0.0340      0.5637      0.0072
         4         0.0157     -0.0556      0.0461
         5         0.0073     -0.0142     -0.3943
         6        -0.0470      0.0665     -0.2982
         7        -0.1545     -0.0184      0.2050
         8         0.1770     -0.0488     -0.0292
         9         0.4766      0.0800     -0.1892
        10        -0.0617      0.0560      0.2401
 Ground to excited state transition velocity quadrupole moments (Au):
       state          XX          YY          ZZ          XY          XZ          YZ
         1        -0.3234      0.5687     -0.0983     -0.0639      0.0583     -0.1168
         2        -0.1099      0.1992     -0.0299      0.2033     -0.0085      0.2949
         3         0.0529      0.0743     -0.0353     -0.0093     -0.2131     -0.0168
         4         0.1224     -0.5081      0.1684      0.0175     -0.0521     -0.0020
         5         0.1277     -0.0494     -0.0825      0.2793     -0.1845      0.0718
         6        -0.2854      0.1368      0.1093      0.2103      0.2111      0.0119
         7         0.0648      0.0248     -0.0474      0.0422     -0.0513     -0.1270
         8        -0.1031      0.0681      0.0242     -0.0258      0.0654      0.1939
         9         0.2194     -0.0406     -0.0430     -0.0337     -0.0282      0.2152
        10         0.2858     -0.1123     -0.0299     -0.0464      0.0224     -0.0322
 <0|del|b> * <b|rxdel|0> + <0|del|b> * <b|delr+rdel|0>
 Rotatory Strengths (R) in cgs (10**-40 erg-esu-cm/Gauss)
       state          XX          YY          ZZ    R(velocity)    E-M Angle
         1       138.2628   -138.7921     57.5835     19.0181       86.31
         2      -116.5654    112.9477    -51.5694    -18.3957       93.32
         3        -7.3588     12.0064     -0.4775      1.3900       89.31
         4         5.4678      2.1114      0.2902      2.6232       53.32
         5        12.0523     -6.8920     -1.8276      1.1109       88.67
         6         2.6238    -16.5725    -20.6907    -11.5465      104.93
         7        -9.3857     13.8193     14.9161      6.4499       79.18
         8       -28.8305     19.5084      3.3466     -1.9918       93.54
         9        23.7028    -27.0483     -0.4204     -1.2553       91.02
        10        -4.2760     -0.7215     -2.8973     -2.6316      104.69
 1/2[<0|r|b>*<b|rxdel|0> + (<0|rxdel|b>*<b|r|0>)*]
 Rotatory Strengths (R) in cgs (10**-40 erg-esu-cm/Gauss)
       state          XX          YY          ZZ     R(length)
         1      -273.4993    353.7676     -1.4700     26.2661
         2       250.5902   -331.7661      3.7666    -25.8031
         3        12.4818    -13.3617      4.9639      1.3614
         4        -0.4052      0.7953      5.3185      1.9029
         5        -2.2397     -1.8761      2.0063     -0.7032
         6       -18.0137     -4.6155     -6.1393     -9.5895
         7        16.1419      7.7080     -1.8413      7.3362
         8        15.9934    -26.6856      0.3105     -3.4606
         9       -34.4084     36.4894      4.7865      2.2892
        10         3.6133     -6.3744     -9.5523     -4.1045
  1/2[<0|del|b>*<b|r|0> + (<0|r|b>*<b|del|0>)*] (Au)
       state          X           Y           Z        Dip. S.   Osc.(frdel)
         1        -0.2082     -0.0231     -0.0016      0.2329      0.1553
         2        -0.0116     -0.2649     -0.0005      0.2770      0.1847
         3        -0.0527     -0.0002     -0.1752      0.2280      0.1520
         4        -0.0006     -0.0001     -0.0097      0.0104      0.0070
         5        -0.0522     -0.0085     -0.0000      0.0608      0.0405
         6        -0.0830     -0.0020     -0.0004      0.0854      0.0569
         7        -0.0059     -0.0812     -0.0001      0.0873      0.0582
         8        -0.0048     -0.1413     -0.0001      0.1462      0.0975
         9        -0.0031     -0.0944     -0.0002      0.0977      0.0651
        10        -0.0021     -0.0059     -0.0006      0.0085      0.0057

 Excitation energies and oscillator strengths:
 
 Excited State   1:      Singlet-A      6.3205 eV  196.16 nm  f=0.2024  <S**2>=0.000
      63 -> 64         0.59622
      63 -> 65         0.19609
      63 -> 66         0.27703
 This state for optimization and/or second-order correction.
 Total Energy, E(TD-HF/TD-DFT) =  -1454.84246707    
 Copying the excited state density for this state as the 1-particle RhoCI density.
 
 Excited State   2:      Singlet-A      6.4029 eV  193.64 nm  f=0.2487  <S**2>=0.000
      62 -> 66        -0.20267
      63 -> 64        -0.23911
      63 -> 65         0.58665
      63 -> 66         0.14383
 
 Excited State   3:      Singlet-A      6.5135 eV  190.35 nm  f=0.1949  <S**2>=0.000
      63 -> 64        -0.19914
      63 -> 65        -0.22156
      63 -> 66         0.61057
 
 Excited State   4:      Singlet-A      6.7045 eV  184.93 nm  f=0.0047  <S**2>=0.000
      59 -> 66         0.13562
      62 -> 64         0.48198
      62 -> 65        -0.46398
      62 -> 77         0.10751
 
 Excited State   5:      Singlet-A      6.8403 eV  181.25 nm  f=0.0373  <S**2>=0.000
      60 -> 64        -0.16528
      60 -> 65         0.29343
      60 -> 66        -0.11817
      61 -> 64        -0.16252
      61 -> 65         0.38890
      61 -> 66        -0.35375
      62 -> 66         0.11235
 
 Excited State   6:      Singlet-A      6.8569 eV  180.82 nm  f=0.0511  <S**2>=0.000
      60 -> 64        -0.32036
      60 -> 65         0.14873
      60 -> 66         0.23928
      61 -> 64         0.42726
      61 -> 65        -0.17668
      61 -> 66        -0.23976
 
 Excited State   7:      Singlet-A      6.8682 eV  180.52 nm  f=0.0629  <S**2>=0.000
      61 -> 65         0.18310
      62 -> 64         0.44447
      62 -> 65         0.44837
      63 -> 65        -0.10903
 
 Excited State   8:      Singlet-A      6.8899 eV  179.95 nm  f=0.1038  <S**2>=0.000
      59 -> 64         0.11149
      59 -> 65        -0.11676
      61 -> 65        -0.21963
      62 -> 64         0.13419
      62 -> 65         0.12663
      62 -> 66         0.56631
      63 -> 65         0.13660
 
 Excited State   9:      Singlet-A      7.0574 eV  175.68 nm  f=0.0739  <S**2>=0.000
      58 -> 66         0.12708
      59 -> 65        -0.12211
      60 -> 64         0.14388
      61 -> 64         0.42433
      61 -> 65         0.31077
      61 -> 66         0.19821
      62 -> 66         0.16285
 
 Excited State  10:      Singlet-A      7.1218 eV  174.09 nm  f=0.0063  <S**2>=0.000
      60 -> 64         0.49157
      61 -> 64         0.11907
      61 -> 66        -0.44116
 SavETr:  write IOETrn=   770 NScale= 10 NData=  16 NLR=1 NState=   10 LETran=     190.

 **********************************************************************

            Population analysis using the SCF Density.

 **********************************************************************

 Orbital symmetries:
       Occupied  (A) (A) (A) (A) (A) (A) (A) (A) (A) (A) (A) (A)
                 (A) (A) (A) (A) (A) (A) (A) (A) (A) (A) (A) (A)
                 (A) (A) (A) (A) (A) (A) (A) (A) (A) (A) (A) (A)
                 (A) (A) (A) (A) (A) (A) (A) (A) (A) (A) (A) (A)
                 (A) (A) (A) (A) (A) (A) (A) (A) (A) (A) (A) (A)
                 (A) (A) (A)
       Virtual   (A) (A) (A) (A) (A) (A) (A) (A) (A) (A) (A) (A)
                 (A) (A) (A) (A) (A) (A) (A) (A) (A) (A) (A) (A)
                 (A) (A) (A) (A) (A) (A) (A) (A) (A) (A) (A) (A)
                 (A) (A) (A) (A) (A) (A) (A) (A) (A) (A) (A) (A)
                 (A) (A) (A) (A) (A) (A) (A) (A) (A) (A) (A) (A)
                 (A) (A) (A) (A) (A) (A) (A) (A) (A) (A) (A) (A)
                 (A) (A) (A) (A) (A) (A) (A) (A) (A) (A) (A) (A)
                 (A) (A) (A) (A) (A) (A) (A) (A) (A) (A) (A) (A)
                 (A) (A) (A) (A) (A) (A) (A) (A) (A) (A) (A) (A)
                 (A) (A) (A) (A) (A) (A) (A) (A) (A) (A) (A) (A)
                 (A) (A) (A) (A) (A) (A) (A) (A) (A) (A) (A) (A)
                 (A) (A) (A) (A) (A) (A) (A) (A) (A) (A) (A) (A)
                 (A) (A) (A) (A) (A) (A) (A) (A) (A) (A) (A) (A)
                 (A) (A) (A) (A) (A) (A) (A) (A) (A) (A) (A) (A)
                 (A) (A) (A) (A) (A) (A) (A) (A) (A) (A) (A) (A)
                 (A) (A) (A) (A) (A) (A) (A) (A) (A) (A) (A) (A)
                 (A) (A) (A) (A) (A) (A) (A) (A) (A) (A) (A) (A)
                 (A) (A) (A) (A) (A) (A) (A) (A) (A) (A) (A) (A)
                 (A) (A) (A) (A) (A) (A) (A) (A) (A) (A) (A) (A)
                 (A) (A) (A) (A) (A) (A) (A) (A) (A) (A) (A) (A)
                 (A) (A) (A) (A) (A) (A) (A) (A) (A) (A) (A) (A)
                 (A) (A) (A) (A) (A) (A) (A) (A) (A) (A) (A) (A)
                 (A) (A) (A) (A) (A) (A) (A) (A) (A) (A) (A) (A)
                 (A) (A) (A) (A) (A) (A) (A) (A) (A) (A) (A) (A)
                 (A) (A) (A) (A) (A) (A) (A) (A) (A) (A) (A) (A)
                 (A) (A) (A) (A) (A) (A) (A) (A) (A) (A) (A) (A)
                 (A) (A) (A) (A) (A) (A) (A) (A) (A) (A) (A) (A)
                 (A) (A) (A) (A) (A) (A) (A) (A) (A) (A) (A) (A)
                 (A) (A) (A) (A) (A) (A) (A) (A) (A) (A) (A) (A)
                 (A) (A) (A) (A) (A) (A) (A) (A) (A) (A) (A) (A)
                 (A) (A) (A) (A) (A) (A) (A) (A) (A) (A) (A) (A)
                 (A) (A) (A) (A) (A) (A) (A) (A) (A) (A) (A) (A)
                 (A) (A) (A) (A) (A) (A) (A) (A) (A) (A) (A) (A)
                 (A) (A) (A) (A) (A) (A) (A) (A) (A) (A) (A) (A)
                 (A) (A) (A) (A) (A) (A) (A) (A) (A) (A) (A) (A)
                 (A) (A) (A) (A) (A) (A) (A) (A) (A) (A) (A) (A)
                 (A) (A) (A) (A) (A) (A) (A) (A) (A) (A) (A) (A)
                 (A) (A) (A) (A) (A) (A) (A) (A) (A) (A) (A) (A)
                 (A) (A) (A) (A) (A) (A) (A) (A) (A) (A) (A) (A)
                 (A) (A) (A) (A) (A) (A) (A) (A) (A) (A) (A) (A)
                 (A) (A) (A) (A) (A) (A) (A) (A) (A) (A) (A) (A)
                 (A) (A) (A) (A) (A) (A) (A) (A) (A) (A) (A) (A)
                 (A) (A) (A) (A) (A) (A) (A) (A) (A) (A) (A) (A)
                 (A) (A) (A) (A) (A) (A) (A) (A) (A) (A) (A) (A)
                 (A) (A) (A) (A) (A) (A) (A) (A) (A) (A) (A) (A)
                 (A)
 The electronic state is 1-A.
 Alpha  occ. eigenvalues -- -101.56112-101.56070 -14.42837 -14.41206 -14.40819
 Alpha  occ. eigenvalues --  -14.40789 -10.33970 -10.32441 -10.31866 -10.31836
 Alpha  occ. eigenvalues --  -10.30225 -10.29256 -10.29167 -10.29151  -9.46909
 Alpha  occ. eigenvalues --   -9.46871  -7.22878  -7.22842  -7.22635  -7.22625
 Alpha  occ. eigenvalues --   -7.22595  -7.22587  -1.02188  -1.00674  -1.00153
 Alpha  occ. eigenvalues --   -1.00121  -0.86568  -0.85556  -0.85352  -0.85328
 Alpha  occ. eigenvalues --   -0.83704  -0.82693  -0.60821  -0.58568  -0.58356
 Alpha  occ. eigenvalues --   -0.58274  -0.57388  -0.53911  -0.53657  -0.53116
 Alpha  occ. eigenvalues --   -0.52758  -0.52620  -0.52559  -0.52374  -0.52349
 Alpha  occ. eigenvalues --   -0.49151  -0.46754  -0.46188  -0.45700  -0.43043
 Alpha  occ. eigenvalues --   -0.42965  -0.41517  -0.41453  -0.40999  -0.40526
 Alpha  occ. eigenvalues --   -0.40464  -0.40282  -0.36971  -0.35729  -0.34700
 Alpha  occ. eigenvalues --   -0.34304  -0.33619  -0.31776
 Alpha virt. eigenvalues --    0.01644   0.01836   0.02491   0.04624   0.05020
 Alpha virt. eigenvalues --    0.05686   0.06120   0.06167   0.06622   0.07482
 Alpha virt. eigenvalues --    0.07777   0.07964   0.09066   0.09153   0.10378
 Alpha virt. eigenvalues --    0.13387   0.13966   0.15532   0.16091   0.17025
 Alpha virt. eigenvalues --    0.17798   0.18165   0.18832   0.20165   0.20177
 Alpha virt. eigenvalues --    0.20699   0.20982   0.21133   0.22055   0.22241
 Alpha virt. eigenvalues --    0.22827   0.25536   0.26532   0.26965   0.27760
 Alpha virt. eigenvalues --    0.29379   0.29928   0.30217   0.30361   0.30725
 Alpha virt. eigenvalues --    0.31849   0.34724   0.34974   0.36018   0.36625
 Alpha virt. eigenvalues --    0.37300   0.37546   0.39637   0.40890   0.41112
 Alpha virt. eigenvalues --    0.41746   0.42172   0.42377   0.44535   0.45174
 Alpha virt. eigenvalues --    0.46199   0.46888   0.47016   0.47508   0.47838
 Alpha virt. eigenvalues --    0.48168   0.48300   0.48703   0.49496   0.49806
 Alpha virt. eigenvalues --    0.50175   0.50524   0.50650   0.51786   0.51975
 Alpha virt. eigenvalues --    0.52839   0.53117   0.53549   0.53813   0.54078
 Alpha virt. eigenvalues --    0.54357   0.55541   0.55855   0.56763   0.57188
 Alpha virt. eigenvalues --    0.57755   0.58693   0.59148   0.59294   0.59437
 Alpha virt. eigenvalues --    0.60336   0.61390   0.62130   0.63199   0.63407
 Alpha virt. eigenvalues --    0.63568   0.63868   0.66215   0.66795   0.67242
 Alpha virt. eigenvalues --    0.67737   0.68675   0.70388   0.71073   0.71858
 Alpha virt. eigenvalues --    0.72383   0.72807   0.73385   0.73885   0.74333
 Alpha virt. eigenvalues --    0.75017   0.75505   0.75728   0.76190   0.77356
 Alpha virt. eigenvalues --    0.78280   0.78729   0.80216   0.81456   0.81974
 Alpha virt. eigenvalues --    0.83640   0.84604   0.86358   0.88710   0.89555
 Alpha virt. eigenvalues --    0.89772   0.90438   0.92089   0.92711   0.93135
 Alpha virt. eigenvalues --    0.93882   0.94631   0.95902   0.99963   1.01430
 Alpha virt. eigenvalues --    1.02729   1.03090   1.03337   1.04323   1.04533
 Alpha virt. eigenvalues --    1.04681   1.05293   1.06261   1.06728   1.07221
 Alpha virt. eigenvalues --    1.07468   1.07855   1.08728   1.09375   1.09685
 Alpha virt. eigenvalues --    1.09929   1.10405   1.10905   1.19586   1.21613
 Alpha virt. eigenvalues --    1.21884   1.22022   1.22558   1.23131   1.23555
 Alpha virt. eigenvalues --    1.24168   1.24535   1.24959   1.25277   1.25547
 Alpha virt. eigenvalues --    1.25961   1.26589   1.27363   1.28513   1.32854
 Alpha virt. eigenvalues --    1.33054   1.33209   1.33465   1.33754   1.34788
 Alpha virt. eigenvalues --    1.35856   1.36033   1.37429   1.38016   1.38361
 Alpha virt. eigenvalues --    1.38946   1.39489   1.40893   1.42917   1.43131
 Alpha virt. eigenvalues --    1.44836   1.45420   1.46357   1.46837   1.47078
 Alpha virt. eigenvalues --    1.47346   1.49129   1.50309   1.51322   1.52000
 Alpha virt. eigenvalues --    1.52122   1.52403   1.76299   1.77592   1.78517
 Alpha virt. eigenvalues --    1.79395   1.79975   1.80587   1.80824   1.82369
 Alpha virt. eigenvalues --    1.88349   1.91298   1.91890   1.92914   1.98680
 Alpha virt. eigenvalues --    1.99980   2.00889   2.02423   2.02893   2.03498
 Alpha virt. eigenvalues --    2.04228   2.05009   2.07705   2.08686   2.08777
 Alpha virt. eigenvalues --    2.09786   2.11139   2.13211   2.13748   2.14088
 Alpha virt. eigenvalues --    2.15413   2.15620   2.16607   2.18172   2.18214
 Alpha virt. eigenvalues --    2.18717   2.18779   2.18991   2.19156   2.19939
 Alpha virt. eigenvalues --    2.20230   2.20647   2.20876   2.21036   2.21318
 Alpha virt. eigenvalues --    2.21618   2.22243   2.23518   2.23981   2.24203
 Alpha virt. eigenvalues --    2.27687   2.29275   2.30263   2.31151   2.32405
 Alpha virt. eigenvalues --    2.32748   2.33388   2.33514   2.34197   2.34632
 Alpha virt. eigenvalues --    2.36290   2.36461   2.37990   2.39308   2.40311
 Alpha virt. eigenvalues --    2.42644   2.46004   2.46269   2.48102   2.50316
 Alpha virt. eigenvalues --    2.54437   2.55601   2.62186   2.62379   2.62662
 Alpha virt. eigenvalues --    2.63830   2.64100   2.64352   2.64864   2.64989
 Alpha virt. eigenvalues --    2.66950   2.67190   2.67219   2.67436   2.68892
 Alpha virt. eigenvalues --    2.70051   2.70762   2.71286   2.72200   2.72989
 Alpha virt. eigenvalues --    2.73336   2.73676   2.78015   2.78399   2.79281
 Alpha virt. eigenvalues --    2.79840   2.80640   2.81342   2.82002   2.82745
 Alpha virt. eigenvalues --    2.86246   2.87013   2.87242   2.87308   2.89685
 Alpha virt. eigenvalues --    2.90299   2.90607   2.90737   2.91172   2.91809
 Alpha virt. eigenvalues --    2.92066   2.92270   2.93208   2.93733   2.93953
 Alpha virt. eigenvalues --    2.94397   2.94685   2.94937   2.95654   2.96161
 Alpha virt. eigenvalues --    2.96965   2.97312   2.98511   3.01416   3.02662
 Alpha virt. eigenvalues --    3.03458   3.04473   3.04954   3.05024   3.06034
 Alpha virt. eigenvalues --    3.07427   3.09516   3.10306   3.11147   3.11404
 Alpha virt. eigenvalues --    3.12043   3.12213   3.12543   3.14158   3.14412
 Alpha virt. eigenvalues --    3.20183   3.20510   3.20747   3.21702   3.22098
 Alpha virt. eigenvalues --    3.22154   3.22841   3.23206   3.28673   3.29153
 Alpha virt. eigenvalues --    3.30082   3.30572   3.33574   3.34503   3.34670
 Alpha virt. eigenvalues --    3.34731   3.36706   3.37103   3.37149   3.37551
 Alpha virt. eigenvalues --    3.37773   3.37903   3.38953   3.39053   3.43962
 Alpha virt. eigenvalues --    3.44295   3.44769   3.44771   3.45995   3.46294
 Alpha virt. eigenvalues --    3.46676   3.46720   3.46761   3.47093   3.47363
 Alpha virt. eigenvalues --    3.47591   3.67879   3.68312   3.68806   3.69005
 Alpha virt. eigenvalues --    3.69102   3.69118   3.69705   3.70312   3.71990
 Alpha virt. eigenvalues --    3.72460   3.73487   3.73732   3.82736   3.82862
 Alpha virt. eigenvalues --    3.83069   3.83351   3.83407   3.84563   3.85101
 Alpha virt. eigenvalues --    3.85220   3.90924   3.93200   3.93665   3.93771
 Alpha virt. eigenvalues --    3.94376   3.94775   3.95214   3.95558   3.95589
 Alpha virt. eigenvalues --    3.95660   3.96458   3.96780   3.97024   3.97818
 Alpha virt. eigenvalues --    3.99083   3.99331   4.00923   4.01330   4.01512
 Alpha virt. eigenvalues --    4.01840   4.01898   4.02001   4.02371   4.02610
 Alpha virt. eigenvalues --    4.08250   4.08621   4.09211   4.09410   4.09938
 Alpha virt. eigenvalues --    4.10183   4.10324   4.10622   4.11100   4.11358
 Alpha virt. eigenvalues --    4.11377   4.11920   4.28439   4.28948   4.29455
 Alpha virt. eigenvalues --    4.29699   4.39408   4.39769   4.39954   4.40198
 Alpha virt. eigenvalues --    4.40812   4.41228   4.41749   4.42223   4.44975
 Alpha virt. eigenvalues --    4.45272   4.45425   4.45769   4.58291   4.58596
 Alpha virt. eigenvalues --    4.58769   4.58906   4.59050   4.59185   4.60296
 Alpha virt. eigenvalues --    4.60621   4.63892   4.64175   4.65209   4.65621
 Alpha virt. eigenvalues --    4.65853   4.66278   4.66537   4.67533   4.77704
 Alpha virt. eigenvalues --    4.78242   4.82823   4.83101   4.83322   4.83486
 Alpha virt. eigenvalues --    4.83796   4.84009   4.84120   4.84261   4.84632
 Alpha virt. eigenvalues --    4.85729   4.86565   4.89583   5.11378   5.11583
 Alpha virt. eigenvalues --    5.11725   5.12356   5.13215   5.13481   5.14419
 Alpha virt. eigenvalues --    5.14487   5.15370   5.16338   5.16535   5.16745
 Alpha virt. eigenvalues --    5.17359   5.17619   5.18190   5.20568   5.24004
 Alpha virt. eigenvalues --    5.24271   5.24335   5.24523   5.24990   5.25317
 Alpha virt. eigenvalues --    5.25622   5.26385   5.26419   5.26568   5.26645
 Alpha virt. eigenvalues --    5.27551   5.27729   5.28552   5.28822   5.29813
 Alpha virt. eigenvalues --    5.29951   5.30353   5.30715   5.33102   5.70096
 Alpha virt. eigenvalues --    5.70338   5.71255   5.73435   5.81752   5.82015
 Alpha virt. eigenvalues --    5.82716   5.82877   5.83159   5.85939   5.87762
 Alpha virt. eigenvalues --    5.89093   6.05168   6.05705   6.06207   6.08438
 Alpha virt. eigenvalues --    6.11902   6.12406   6.12588   6.12627   6.13247
 Alpha virt. eigenvalues --    6.13330   6.13632   6.14427   7.95819   8.01905
 Alpha virt. eigenvalues --    8.03692   8.55438  10.34783  13.45283  13.47159
 Alpha virt. eigenvalues --   13.48010  13.51998  14.94003  15.01665  15.02779
 Alpha virt. eigenvalues --   15.39841
          Condensed to atoms (all electrons):
               1          2          3          4          5          6
     1  Pb   2.858951   0.007975   0.005999  -0.002595  -0.000039  -0.000025
     2  Cl   0.007975  17.708757  -0.008828  -0.000006   0.000001   0.000000
     3  Cl   0.005999  -0.008828  17.704416  -0.013587   0.000247   0.000176
     4  C   -0.002595  -0.000006  -0.013587   4.819367   0.399284   0.399110
     5  H   -0.000039   0.000001   0.000247   0.399284   0.530048  -0.020866
     6  H   -0.000025   0.000000   0.000176   0.399110  -0.020866   0.517612
     7  H   -0.000911  -0.000016   0.016538   0.391916  -0.021866  -0.019096
     8  C   -0.026728   0.000066   0.004833   0.295116  -0.032483  -0.028254
     9  N    0.009951   0.000080  -0.004420  -0.044205  -0.000958   0.000117
    10  C   -0.002503  -0.014045  -0.000006   0.000000   0.000000  -0.000000
    11  H   -0.000035   0.000232   0.000001   0.000000  -0.000000   0.000000
    12  H   -0.000028   0.000182   0.000000  -0.000000   0.000000  -0.000000
    13  H   -0.000968   0.016705  -0.000015   0.000000  -0.000000  -0.000000
    14  C   -0.026530   0.004793   0.000067   0.000005   0.000001  -0.000000
    15  N    0.009937  -0.004315   0.000081   0.000001  -0.000000  -0.000000
    16  C   -0.002690  -0.001338  -0.008607  -0.000000  -0.000000   0.000000
    17  H   -0.000037   0.000237   0.000213   0.000000  -0.000000  -0.000000
    18  H    0.000227   0.005328  -0.000099   0.000000   0.000000  -0.000000
    19  H   -0.000030   0.000100   0.013710   0.000001  -0.000000  -0.000000
    20  C   -0.023438   0.004478   0.006160   0.000004  -0.000000   0.000000
    21  N    0.010242  -0.006980  -0.006586  -0.000001  -0.000000   0.000000
    22  C   -0.002218   0.000182   0.000138  -0.000083  -0.000008  -0.000006
    23  H    0.000053   0.000033   0.000033  -0.000002   0.000005  -0.000001
    24  H   -0.000065   0.000006  -0.000001   0.000012   0.000002   0.000000
    25  H   -0.000066  -0.000001   0.000001  -0.000129   0.000166  -0.000004
    26  C   -0.028989   0.001071   0.001091  -0.000085   0.000180   0.000052
    27  N   -0.039174  -0.007411  -0.006851   0.001912   0.000033   0.000072
               7          8          9         10         11         12
     1  Pb  -0.000911  -0.026728   0.009951  -0.002503  -0.000035  -0.000028
     2  Cl  -0.000016   0.000066   0.000080  -0.014045   0.000232   0.000182
     3  Cl   0.016538   0.004833  -0.004420  -0.000006   0.000001   0.000000
     4  C    0.391916   0.295116  -0.044205   0.000000   0.000000  -0.000000
     5  H   -0.021866  -0.032483  -0.000958   0.000000  -0.000000   0.000000
     6  H   -0.019096  -0.028254   0.000117  -0.000000   0.000000  -0.000000
     7  H    0.528135  -0.034653  -0.002938   0.000000  -0.000000  -0.000000
     8  C   -0.034653   4.832797   1.005032   0.000005   0.000001  -0.000000
     9  N   -0.002938   1.005032   6.198367   0.000001  -0.000000  -0.000000
    10  C    0.000000   0.000005   0.000001   4.821181   0.399272   0.398982
    11  H   -0.000000   0.000001  -0.000000   0.399272   0.530635  -0.021004
    12  H   -0.000000  -0.000000  -0.000000   0.398982  -0.021004   0.516624
    13  H    0.000000  -0.000001   0.000000   0.391642  -0.021952  -0.018809
    14  C   -0.000001   0.000069   0.000023   0.295009  -0.032704  -0.028025
    15  N    0.000000   0.000025   0.000051  -0.043793  -0.000951   0.000102
    16  C    0.000000   0.000002  -0.000000   0.000000  -0.000000   0.000000
    17  H   -0.000000   0.000000   0.000000   0.000000  -0.000000  -0.000000
    18  H   -0.000000  -0.000000  -0.000000   0.000000   0.000000  -0.000000
    19  H    0.000003  -0.000000   0.000000   0.000000   0.000000  -0.000000
    20  C   -0.000001   0.000006   0.000011   0.000003  -0.000000   0.000000
    21  N    0.000001   0.000007   0.000004  -0.000001  -0.000000   0.000000
    22  C    0.000029   0.000082   0.000004  -0.000167  -0.000048  -0.000005
    23  H    0.000002  -0.000001  -0.000001  -0.000000   0.000006  -0.000001
    24  H    0.000002  -0.000006  -0.000001  -0.000176   0.000326  -0.000005
    25  H   -0.000025   0.000088   0.000016   0.000018  -0.000002   0.000000
    26  C    0.000305   0.000082  -0.000359   0.000057   0.000173   0.000060
    27  N    0.000040   0.000024  -0.003530   0.001823  -0.000031   0.000071
              13         14         15         16         17         18
     1  Pb  -0.000968  -0.026530   0.009937  -0.002690  -0.000037   0.000227
     2  Cl   0.016705   0.004793  -0.004315  -0.001338   0.000237   0.005328
     3  Cl  -0.000015   0.000067   0.000081  -0.008607   0.000213  -0.000099
     4  C    0.000000   0.000005   0.000001  -0.000000   0.000000   0.000000
     5  H   -0.000000   0.000001  -0.000000  -0.000000  -0.000000   0.000000
     6  H   -0.000000  -0.000000  -0.000000   0.000000  -0.000000  -0.000000
     7  H    0.000000  -0.000001   0.000000   0.000000  -0.000000  -0.000000
     8  C   -0.000001   0.000069   0.000025   0.000002   0.000000  -0.000000
     9  N    0.000000   0.000023   0.000051  -0.000000   0.000000  -0.000000
    10  C    0.391642   0.295009  -0.043793   0.000000   0.000000   0.000000
    11  H   -0.021952  -0.032704  -0.000951  -0.000000  -0.000000   0.000000
    12  H   -0.018809  -0.028025   0.000102   0.000000  -0.000000  -0.000000
    13  H    0.527757  -0.034868  -0.002956  -0.000000  -0.000000   0.000000
    14  C   -0.034868   4.833454   1.004250   0.000001   0.000000   0.000000
    15  N   -0.002956   1.004250   6.198771   0.000000   0.000000   0.000000
    16  C   -0.000000   0.000001   0.000000   4.798760   0.399860   0.395186
    17  H   -0.000000   0.000000   0.000000   0.399860   0.518694  -0.021158
    18  H    0.000000   0.000000   0.000000   0.395186  -0.021158   0.532928
    19  H    0.000000  -0.000000  -0.000000   0.389577  -0.020312  -0.020213
    20  C   -0.000000   0.000008   0.000011   0.301753  -0.028850  -0.033525
    21  N    0.000002   0.000007   0.000001  -0.036909  -0.000064  -0.001672
    22  C    0.000044   0.000128   0.000014   0.000000   0.000000  -0.000000
    23  H    0.000002  -0.000000  -0.000001   0.000000   0.000000  -0.000000
    24  H   -0.000043   0.000089   0.000016  -0.000000  -0.000000  -0.000000
    25  H    0.000003  -0.000008  -0.000002   0.000000  -0.000000   0.000000
    26  C    0.000296  -0.000040  -0.000440   0.000001   0.000000  -0.000000
    27  N   -0.000022   0.000202  -0.003475  -0.000003   0.000000   0.000001
              19         20         21         22         23         24
     1  Pb  -0.000030  -0.023438   0.010242  -0.002218   0.000053  -0.000065
     2  Cl   0.000100   0.004478  -0.006980   0.000182   0.000033   0.000006
     3  Cl   0.013710   0.006160  -0.006586   0.000138   0.000033  -0.000001
     4  C    0.000001   0.000004  -0.000001  -0.000083  -0.000002   0.000012
     5  H   -0.000000  -0.000000  -0.000000  -0.000008   0.000005   0.000002
     6  H   -0.000000   0.000000   0.000000  -0.000006  -0.000001   0.000000
     7  H    0.000003  -0.000001   0.000001   0.000029   0.000002   0.000002
     8  C   -0.000000   0.000006   0.000007   0.000082  -0.000001  -0.000006
     9  N    0.000000   0.000011   0.000004   0.000004  -0.000001  -0.000001
    10  C    0.000000   0.000003  -0.000001  -0.000167  -0.000000  -0.000176
    11  H    0.000000  -0.000000  -0.000000  -0.000048   0.000006   0.000326
    12  H   -0.000000   0.000000   0.000000  -0.000005  -0.000001  -0.000005
    13  H    0.000000  -0.000000   0.000002   0.000044   0.000002  -0.000043
    14  C   -0.000000   0.000008   0.000007   0.000128  -0.000000   0.000089
    15  N   -0.000000   0.000011   0.000001   0.000014  -0.000001   0.000016
    16  C    0.389577   0.301753  -0.036909   0.000000   0.000000  -0.000000
    17  H   -0.020312  -0.028850  -0.000064   0.000000   0.000000  -0.000000
    18  H   -0.020213  -0.033525  -0.001672  -0.000000  -0.000000  -0.000000
    19  H    0.532568  -0.033372  -0.002701  -0.000000  -0.000000   0.000000
    20  C   -0.033372   4.829508   0.981029   0.000000  -0.000000  -0.000000
    21  N   -0.002701   0.981029   6.237723   0.000000   0.000000  -0.000000
    22  C   -0.000000   0.000000   0.000000   4.725067   0.399528   0.401500
    23  H   -0.000000  -0.000000   0.000000   0.399528   0.524430  -0.020416
    24  H    0.000000  -0.000000  -0.000000   0.401500  -0.020416   0.528116
    25  H   -0.000000  -0.000000  -0.000000   0.402578  -0.020338  -0.021959
    26  C   -0.000000   0.000002   0.000005   0.332306  -0.032471  -0.034235
    27  N   -0.000001   0.000060   0.000037  -0.026688  -0.001410  -0.002037
              25         26         27
     1  Pb  -0.000066  -0.028989  -0.039174
     2  Cl  -0.000001   0.001071  -0.007411
     3  Cl   0.000001   0.001091  -0.006851
     4  C   -0.000129  -0.000085   0.001912
     5  H    0.000166   0.000180   0.000033
     6  H   -0.000004   0.000052   0.000072
     7  H   -0.000025   0.000305   0.000040
     8  C    0.000088   0.000082   0.000024
     9  N    0.000016  -0.000359  -0.003530
    10  C    0.000018   0.000057   0.001823
    11  H   -0.000002   0.000173  -0.000031
    12  H    0.000000   0.000060   0.000071
    13  H    0.000003   0.000296  -0.000022
    14  C   -0.000008  -0.000040   0.000202
    15  N   -0.000002  -0.000440  -0.003475
    16  C    0.000000   0.000001  -0.000003
    17  H   -0.000000   0.000000   0.000000
    18  H    0.000000  -0.000000   0.000001
    19  H   -0.000000  -0.000000  -0.000001
    20  C   -0.000000   0.000002   0.000060
    21  N   -0.000000   0.000005   0.000037
    22  C    0.402578   0.332306  -0.026688
    23  H   -0.020338  -0.032471  -0.001410
    24  H   -0.021959  -0.034235  -0.002037
    25  H    0.527427  -0.035044  -0.001891
    26  C   -0.035044   4.866774   0.875463
    27  N   -0.001891   0.875463   6.387055
 Mulliken charges:
               1
     1  Pb   1.253734
     2  Cl  -0.707285
     3  Cl  -0.704703
     4  C   -0.246035
     5  H    0.146251
     6  H    0.151112
     7  H    0.142535
     8  C   -0.016109
     9  N   -0.157244
    10  C   -0.247303
    11  H    0.146080
    12  H    0.151856
    13  H    0.143181
    14  C   -0.015928
    15  N   -0.157328
    16  C   -0.235591
    17  H    0.151416
    18  H    0.142995
    19  H    0.140670
    20  C   -0.003848
    21  N   -0.174145
    22  C   -0.232377
    23  H    0.150548
    24  H    0.148874
    25  H    0.149170
    26  C    0.053747
    27  N   -0.174270
 Sum of Mulliken charges =  -0.00000
 Mulliken charges with hydrogens summed into heavy atoms:
               1
     1  Pb   1.253734
     2  Cl  -0.707285
     3  Cl  -0.704703
     4  C    0.193862
     8  C   -0.016109
     9  N   -0.157244
    10  C    0.193814
    14  C   -0.015928
    15  N   -0.157328
    16  C    0.199490
    20  C   -0.003848
    21  N   -0.174145
    22  C    0.216214
    26  C    0.053747
    27  N   -0.174270
 Electronic spatial extent (au):  <R**2>=           5405.7853
 Charge=             -0.0000 electrons
 Dipole moment (field-independent basis, Debye):
    X=             10.4867    Y=              0.3843    Z=              5.1917  Tot=             11.7078
 Quadrupole moment (field-independent basis, Debye-Ang):
   XX=            -55.4983   YY=            -95.7853   ZZ=           -125.7962
   XY=             -0.1508   XZ=             14.2205   YZ=              0.3401
 Traceless Quadrupole moment (field-independent basis, Debye-Ang):
   XX=             36.8617   YY=             -3.4254   ZZ=            -33.4363
   XY=             -0.1508   XZ=             14.2205   YZ=              0.3401
 Octapole moment (field-independent basis, Debye-Ang**2):
  XXX=             19.1185  YYY=              6.7810  ZZZ=            -28.9465  XYY=             85.2297
  XXY=             -2.8130  XXZ=            101.2155  XZZ=             -1.9684  YZZ=             -0.1416
  YYZ=            -29.1968  XYZ=              3.3160
 Hexadecapole moment (field-independent basis, Debye-Ang**3):
 XXXX=          -2436.3159 YYYY=          -2107.2980 ZZZZ=          -1145.1696 XXXY=            -12.1697
 XXXZ=             94.4554 YYYX=              1.1575 YYYZ=              4.4898 ZZZX=            138.8145
 ZZZY=              4.2458 XXYY=           -866.1285 XXZZ=           -671.0300 YYZZ=           -703.7595
 XXYZ=             -4.3868 YYXZ=             53.1254 ZZXY=              3.8705
 N-N= 1.007049835426D+03 E-N=-5.446476947827D+03  KE= 1.446104694425D+03
 Unable to Open any file for archive entry.
 1\1\GINC-MPCL043\SP\RCAM-B3LYP TD-FC\Gen\C8H12Cl2N4Pb1\EDBA4025\15-Apr
 -2021\0\\# cam-b3lyp/gen pseudo=read TD=NStates=10 Geom=Check Guess=Re
 ad empiricaldispersion=gd3bj SCRF=(Solvent=Acetonitrile)\\PbCl2_acn\\0
 ,1\Pb,0,-0.3869446905,-0.0226886066,-0.4878831731\Cl,0,-0.8582043858,-
 1.9454327458,1.2412440432\Cl,0,-1.0266180917,1.8523902302,1.2481332058
 \C,0,1.9310154504,3.7153571389,0.0940339668\H,0,2.9703940195,3.5105572
 825,0.4155926306\H,0,1.8483921116,4.7743629793,-0.2171922401\H,0,1.235
 2920919,3.5224987308,0.9366954519\C,0,1.5614735318,2.8355499352,-1.000
 4142632\N,0,1.238160018,2.0999780263,-1.8592755934\C,0,2.2109693006,-3
 .5743215122,0.045449739\H,0,3.2284110735,-3.2893168987,0.3762059801\H,
 0,2.2178558624,-4.6315222803,-0.2822912699\H,0,1.49766171,-3.451883835
 8,0.8867063453\C,0,1.7751524033,-2.710579928,-1.0372836154\N,0,1.39646
 40878,-1.9891374492,-1.8854732786\C,0,-4.2404215005,-0.0911467346,1.38
 87085258\H,0,-5.3053587104,0.2077275275,1.351983338\H,0,-4.1475922643,
 -1.0833758324,1.8703761163\H,0,-3.662306209,0.6523589138,1.9739508212\
 C,0,-3.6792933315,-0.1452073078,0.0522027012\N,0,-3.1875768067,-0.1781
 107947,-1.0162034321\C,0,4.1663966034,0.0640920776,1.9878041891\H,0,3.
 9888847861,0.098087064,3.0798876098\H,0,4.7310114875,-0.8553190846,1.7
 387951699\H,0,4.7604737507,0.9486631409,1.6874224238\C,0,2.8986302397,
 0.064149189,1.2840690997\N,0,1.8758774624,0.0627707749,0.7135255085\\V
 ersion=ES64L-G16RevC.01\State=1-A\HF=-1455.0747398\RMSD=7.013e-09\PG=C
 01 [X(C8H12Cl2N4Pb1)]\\@
 The archive entry for this job was punched.


 ALL SCIENCE IS EITHER PHYSICS, OR STAMP COLLECTING.
   --ERNEST RUTHERFORD, 1871-1937.
 Job cpu time:       0 days  3 hours  4 minutes 43.4 seconds.
 Elapsed time:       0 days  0 hours 36 minutes 57.9 seconds.
 File lengths (MBytes):  RWF=   1804 Int=      0 D2E=      0 Chk=    536 Scr=      1
 Normal termination of Gaussian 16 at Thu Apr 15 15:58:21 2021.
