 Entering Gaussian System, Link 0=g16
 Input=02-PbCl2_DMF_23596071.com
 Output=02-PbCl2_DMF_23596071.log
 Initial command:
 /cm/shared/uniol/software/gaussian/g16.c01/g16/l1.exe "/scratch/23596071_edba4025/Gau-2892.inp" -scrdir="/scratch/23596071_edba4025/"
 Entering Link 1 = /cm/shared/uniol/software/gaussian/g16.c01/g16/l1.exe PID=      2893.
  
 Copyright (c) 1988-2019, Gaussian, Inc.  All Rights Reserved.
  
 This is part of the Gaussian(R) 16 program.  It is based on
 the Gaussian(R) 09 system (copyright 2009, Gaussian, Inc.),
 the Gaussian(R) 03 system (copyright 2003, Gaussian, Inc.),
 the Gaussian(R) 98 system (copyright 1998, Gaussian, Inc.),
 the Gaussian(R) 94 system (copyright 1995, Gaussian, Inc.),
 the Gaussian 92(TM) system (copyright 1992, Gaussian, Inc.),
 the Gaussian 90(TM) system (copyright 1990, Gaussian, Inc.),
 the Gaussian 88(TM) system (copyright 1988, Gaussian, Inc.),
 the Gaussian 86(TM) system (copyright 1986, Carnegie Mellon
 University), and the Gaussian 82(TM) system (copyright 1983,
 Carnegie Mellon University). Gaussian is a federally registered
 trademark of Gaussian, Inc.
  
 This software contains proprietary and confidential information,
 including trade secrets, belonging to Gaussian, Inc.
  
 This software is provided under written license and may be
 used, copied, transmitted, or stored only in accord with that
 written license.
  
 The following legend is applicable only to US Government
 contracts under FAR:
  
                    RESTRICTED RIGHTS LEGEND
  
 Use, reproduction and disclosure by the US Government is
 subject to restrictions as set forth in subparagraphs (a)
 and (c) of the Commercial Computer Software - Restricted
 Rights clause in FAR 52.227-19.
  
 Gaussian, Inc.
 340 Quinnipiac St., Bldg. 40, Wallingford CT 06492
  
  
 ---------------------------------------------------------------
 Warning -- This program may not be used in any manner that
 competes with the business of Gaussian, Inc. or will provide
 assistance to any competitor of Gaussian, Inc.  The licensee
 of this program is prohibited from giving any competitor of
 Gaussian, Inc. access to this program.  By using this program,
 the user acknowledges that Gaussian, Inc. is engaged in the
 business of creating and licensing software in the field of
 computational chemistry and represents and warrants to the
 licensee that it is not a competitor of Gaussian, Inc. and that
 it will not use this program in any manner prohibited above.
 ---------------------------------------------------------------
  

 Cite this work as:
 Gaussian 16, Revision C.01,
 M. J. Frisch, G. W. Trucks, H. B. Schlegel, G. E. Scuseria, 
 M. A. Robb, J. R. Cheeseman, G. Scalmani, V. Barone, 
 G. A. Petersson, H. Nakatsuji, X. Li, M. Caricato, A. V. Marenich, 
 J. Bloino, B. G. Janesko, R. Gomperts, B. Mennucci, H. P. Hratchian, 
 J. V. Ortiz, A. F. Izmaylov, J. L. Sonnenberg, D. Williams-Young, 
 F. Ding, F. Lipparini, F. Egidi, J. Goings, B. Peng, A. Petrone, 
 T. Henderson, D. Ranasinghe, V. G. Zakrzewski, J. Gao, N. Rega, 
 G. Zheng, W. Liang, M. Hada, M. Ehara, K. Toyota, R. Fukuda, 
 J. Hasegawa, M. Ishida, T. Nakajima, Y. Honda, O. Kitao, H. Nakai, 
 T. Vreven, K. Throssell, J. A. Montgomery, Jr., J. E. Peralta, 
 F. Ogliaro, M. J. Bearpark, J. J. Heyd, E. N. Brothers, K. N. Kudin, 
 V. N. Staroverov, T. A. Keith, R. Kobayashi, J. Normand, 
 K. Raghavachari, A. P. Rendell, J. C. Burant, S. S. Iyengar, 
 J. Tomasi, M. Cossi, J. M. Millam, M. Klene, C. Adamo, R. Cammi, 
 J. W. Ochterski, R. L. Martin, K. Morokuma, O. Farkas, 
 J. B. Foresman, and D. J. Fox, Gaussian, Inc., Wallingford CT, 2019.
 
 ******************************************
 Gaussian 16:  ES64L-G16RevC.01  3-Jul-2019
                17-Apr-2021 
 ******************************************
 %oldChk=01-PbCl2_DMF
 %chk=02-PbCl2_DMF
 %mem=16GB
 %NProcShared=5
 Will use up to    5 processors via shared memory.
 Copying data from "01-PbCl2_DMF.chk" to current chk file "02-PbCl2_DMF.chk"
 IOpt=  2 FromEx=T IUOpen= 4 IOptOp= 5 NList=   0 IFRang= 0 IUIn= 4 IUOut= 2.
 ----------------------------------------------------------------------
 # cam-b3lyp/gen pseudo=read TD=NStates=10 Geom=Check Guess=Read empiri
 caldispersion=gd3bj SCRF=(Solvent=n,n-DiMethylFormamide)
 ----------------------------------------------------------------------
 1/29=2,38=1,172=1/1;
 2/12=2,40=1/2;
 3/5=7,11=9,14=-4,16=1,17=8,25=1,30=1,70=2201,72=148,74=-40,116=-2,124=41/1,2,3,8;
 4/5=1/1;
 5/5=2,38=6,53=148/2;
 8/6=1,10=1,108=10/1;
 9/41=10,42=1,70=2/14;
 6/7=2,8=2,9=2,10=2/1;
 99/5=1,9=1/99;
 ---------
 PbCl2_DMF
 ---------
 Structure from the checkpoint file:  "02-PbCl2_DMF.chk"
 Charge =  0 Multiplicity = 1
 Redundant internal coordinates found in file.  (old form).
 Pb,0,-0.0786627044,-0.8982044173,-0.3948447678
 Cl,0,0.8531673106,-2.3688627534,-2.4091052119
 Cl,0,-0.9776656592,-2.9908197171,1.0380811099
 O,0,1.1118409755,1.3797166437,-1.5203227701
 C,0,1.0238741383,2.5944183526,-1.2510587852
 H,0,1.9180307425,3.207601248,-0.9760527891
 N,0,-0.1178971009,3.322853522,-1.2603001201
 C,0,-1.3920530804,2.7128727791,-1.6063482597
 C,0,-0.1158879732,4.734368748,-0.9129939492
 H,0,0.9167993569,5.0584472597,-0.6866879371
 H,0,-0.7536331907,4.9195613304,-0.0232694588
 H,0,-0.507946938,5.3431243431,-1.7534762487
 H,0,-2.070194008,2.6967993403,-0.7279306434
 H,0,-1.8798204635,3.2868426282,-2.4199606016
 H,0,-1.2061440146,1.6780879618,-1.9410404654
 O,0,-0.6088143533,1.1266984496,1.545578106
 C,0,-0.3034472174,2.2795724662,1.9083309941
 H,0,-1.0766088478,3.0719373386,2.0744217113
 N,0,0.951587933,2.7310523118,2.1469184561
 C,0,2.1087037891,1.857706738,2.0154103816
 C,0,1.1881639176,4.0926466748,2.5991905196
 H,0,0.2269825617,4.6355973124,2.664418729
 H,0,1.8555385924,4.6267289587,1.8912388692
 H,0,1.6697792017,4.0934347399,3.5990700342
 H,0,2.8463630101,2.307715845,1.3195230017
 H,0,2.6007486804,1.7230036654,3.0014529503
 H,0,1.7889332673,0.8778287781,1.6235898573
 O,0,2.1544379028,-1.1894239198,0.7346526294
 C,0,3.1272699715,-1.9178404737,0.4140006872
 H,0,3.3376029151,-2.8754882702,0.9480316799
 N,0,4.0164377827,-1.6507613419,-0.5574045592
 C,0,3.9096073907,-0.4563255467,-1.3849140828
 C,0,5.1060383403,-2.5703433016,-0.8494140481
 H,0,5.0771077061,-3.418991272,-0.1418165134
 H,0,6.0817298086,-2.0517655946,-0.7548388135
 H,0,5.0124392668,-2.9584358232,-1.8843120681
 H,0,4.8259531081,0.1593217985,-1.27364451
 H,0,3.8045699689,-0.7515446025,-2.4480455419
 H,0,3.0203370413,0.1257579607,-1.0865348604
 O,0,-2.3393082254,-0.7013472777,-1.7013698972
 C,0,-3.391180593,-0.0256031602,-1.6114692256
 H,0,-3.8830962183,0.4023730452,-2.5190921366
 N,0,-4.0489332803,0.2629049449,-0.4718509295
 C,0,-3.5710480768,-0.2353940104,0.8152905168
 C,0,-5.2059744846,1.1467693001,-0.476818514
 H,0,-5.441076296,1.4420885394,-1.515966482
 H,0,-4.9960932879,2.0614071121,0.115569302
 H,0,-6.0859308656,0.6359524379,-0.0363506275
 H,0,-2.8476091078,0.4707507757,1.2754532608
 H,0,-4.4375885689,-0.3722818894,1.4887852977
 H,0,-3.0615901238,-1.2070599779,0.6702167238
 Recover connectivity data from disk.
                           ----------------------------
                           !    Current Parameters    !
                           ! (Angstroms and Degrees)  !
 --------------------------                            --------------------------
 ! Name  Definition              Value                                          !
 --------------------------------------------------------------------------------
 ! R1    R(1,2)                  2.6624                                         !
 ! R2    R(1,3)                  2.6908                                         !
 ! R3    R(1,28)                 2.5194                                         !
 ! R4    R(1,40)                 2.6184                                         !
 ! R5    R(4,5)                  1.2473                                         !
 ! R6    R(4,39)                 2.3244                                         !
 ! R7    R(5,6)                  1.1185                                         !
 ! R8    R(5,7)                  1.3544                                         !
 ! R9    R(7,8)                  1.4544                                         !
 ! R10   R(7,9)                  1.4536                                         !
 ! R11   R(8,13)                 1.1098                                         !
 ! R12   R(8,14)                 1.1087                                         !
 ! R13   R(8,15)                 1.1033                                         !
 ! R14   R(9,10)                 1.1058                                         !
 ! R15   R(9,11)                 1.1102                                         !
 ! R16   R(9,12)                 1.1094                                         !
 ! R17   R(16,17)                1.2466                                         !
 ! R18   R(16,49)                2.3485                                         !
 ! R19   R(17,18)                1.1195                                         !
 ! R20   R(17,19)                1.3549                                         !
 ! R21   R(19,20)                1.4557                                         !
 ! R22   R(19,21)                1.4541                                         !
 ! R23   R(20,25)                1.1095                                         !
 ! R24   R(20,26)                1.1102                                         !
 ! R25   R(20,27)                1.1027                                         !
 ! R26   R(21,22)                1.1059                                         !
 ! R27   R(21,23)                1.1099                                         !
 ! R28   R(21,24)                1.1098                                         !
 ! R29   R(27,28)                2.2798                                         !
 ! R30   R(28,29)                1.2569                                         !
 ! R31   R(29,30)                1.1165                                         !
 ! R32   R(29,31)                1.3437                                         !
 ! R33   R(31,32)                1.457                                          !
 ! R34   R(31,33)                1.4554                                         !
 ! R35   R(32,37)                1.1095                                         !
 ! R36   R(32,38)                1.1083                                         !
 ! R37   R(32,39)                1.1039                                         !
 ! R38   R(33,34)                1.1053                                         !
 ! R39   R(33,35)                1.109                                          !
 ! R40   R(33,36)                1.1092                                         !
 ! R41   R(40,41)                1.2535                                         !
 ! R42   R(41,42)                1.1176                                         !
 ! R43   R(41,43)                1.3471                                         !
 ! R44   R(43,44)                1.4606                                         !
 ! R45   R(43,45)                1.456                                          !
 ! R46   R(44,49)                1.1107                                         !
 ! R47   R(44,50)                1.106                                          !
 ! R48   R(44,51)                1.1067                                         !
 ! R49   R(45,46)                1.1056                                         !
 ! R50   R(45,47)                1.1097                                         !
 ! R51   R(45,48)                1.1087                                         !
 ! A1    A(2,1,3)               95.1774                                         !
 ! A2    A(2,1,28)              88.0003                                         !
 ! A3    A(2,1,40)              88.063                                          !
 ! A4    A(3,1,28)              88.1375                                         !
 ! A5    A(3,1,40)              92.0478                                         !
 ! A6    A(5,4,39)             122.8876                                         !
 ! A7    A(4,5,6)              122.0441                                         !
 ! A8    A(4,5,7)              125.5748                                         !
 ! A9    A(6,5,7)              112.3797                                         !
 ! A10   A(5,7,8)              120.9705                                         !
 ! A11   A(5,7,9)              121.2963                                         !
 ! A12   A(8,7,9)              117.7305                                         !
 ! A13   A(7,8,13)             110.6742                                         !
 ! A14   A(7,8,14)             110.0529                                         !
 ! A15   A(7,8,15)             108.5362                                         !
 ! A16   A(13,8,14)            108.632                                          !
 ! A17   A(13,8,15)            109.2362                                         !
 ! A18   A(14,8,15)            109.6964                                         !
 ! A19   A(7,9,10)             109.5595                                         !
 ! A20   A(7,9,11)             110.6495                                         !
 ! A21   A(7,9,12)             110.5695                                         !
 ! A22   A(10,9,11)            108.8787                                         !
 ! A23   A(10,9,12)            108.9222                                         !
 ! A24   A(11,9,12)            108.2164                                         !
 ! A25   A(17,16,49)           121.6886                                         !
 ! A26   A(16,17,18)           121.9102                                         !
 ! A27   A(16,17,19)           125.8952                                         !
 ! A28   A(18,17,19)           112.1946                                         !
 ! A29   A(17,19,20)           121.364                                          !
 ! A30   A(17,19,21)           121.1629                                         !
 ! A31   A(20,19,21)           117.4235                                         !
 ! A32   A(19,20,25)           109.9885                                         !
 ! A33   A(19,20,26)           110.1735                                         !
 ! A34   A(19,20,27)           109.556                                          !
 ! A35   A(25,20,26)           108.157                                          !
 ! A36   A(25,20,27)           109.2911                                         !
 ! A37   A(26,20,27)           109.6516                                         !
 ! A38   A(19,21,22)           109.6744                                         !
 ! A39   A(19,21,23)           110.4888                                         !
 ! A40   A(19,21,24)           110.5781                                         !
 ! A41   A(22,21,23)           108.905                                          !
 ! A42   A(22,21,24)           108.8864                                         !
 ! A43   A(23,21,24)           108.2638                                         !
 ! A44   A(20,27,28)           153.8762                                         !
 ! A45   A(1,28,27)             85.8647                                         !
 ! A46   A(1,28,29)            129.6916                                         !
 ! A47   A(27,28,29)           138.5102                                         !
 ! A48   A(28,29,30)           121.391                                          !
 ! A49   A(28,29,31)           125.5494                                         !
 ! A50   A(30,29,31)           113.0548                                         !
 ! A51   A(29,31,32)           121.6689                                         !
 ! A52   A(29,31,33)           120.989                                          !
 ! A53   A(32,31,33)           117.3176                                         !
 ! A54   A(31,32,37)           109.7161                                         !
 ! A55   A(31,32,38)           109.4736                                         !
 ! A56   A(31,32,39)           109.7438                                         !
 ! A57   A(37,32,38)           108.7993                                         !
 ! A58   A(37,32,39)           110.2189                                         !
 ! A59   A(38,32,39)           108.8667                                         !
 ! A60   A(31,33,34)           109.6993                                         !
 ! A61   A(31,33,35)           110.2497                                         !
 ! A62   A(31,33,36)           110.1873                                         !
 ! A63   A(34,33,35)           109.1148                                         !
 ! A64   A(34,33,36)           109.0526                                         !
 ! A65   A(35,33,36)           108.5066                                         !
 ! A66   A(4,39,32)            153.5626                                         !
 ! A67   A(1,40,41)            136.8236                                         !
 ! A68   A(40,41,42)           121.1706                                         !
 ! A69   A(40,41,43)           125.8663                                         !
 ! A70   A(42,41,43)           112.9625                                         !
 ! A71   A(41,43,44)           120.8434                                         !
 ! A72   A(41,43,45)           121.0072                                         !
 ! A73   A(44,43,45)           118.0408                                         !
 ! A74   A(43,44,49)           111.1793                                         !
 ! A75   A(43,44,50)           108.8145                                         !
 ! A76   A(43,44,51)           109.5503                                         !
 ! A77   A(49,44,50)           109.6762                                         !
 ! A78   A(49,44,51)           108.2196                                         !
 ! A79   A(50,44,51)           109.3804                                         !
 ! A80   A(43,45,46)           109.5325                                         !
 ! A81   A(43,45,47)           110.3775                                         !
 ! A82   A(43,45,48)           110.4666                                         !
 ! A83   A(46,45,47)           108.7713                                         !
 ! A84   A(46,45,48)           109.129                                          !
 ! A85   A(47,45,48)           108.5274                                         !
 ! A86   A(16,49,44)           147.7903                                         !
 ! A87   L(28,1,40,2,-1)       176.0634                                         !
 ! A88   L(28,1,40,2,-2)       179.8291                                         !
 ! D1    D(2,1,28,27)          148.4542                                         !
 ! D2    D(2,1,28,29)           -7.8938                                         !
 ! D3    D(3,1,28,27)         -116.2972                                         !
 ! D4    D(3,1,28,29)           87.3548                                         !
 ! D5    D(2,1,40,41)         -168.62                                           !
 ! D6    D(3,1,40,41)           96.2659                                         !
 ! D7    D(39,4,5,6)            12.6211                                         !
 ! D8    D(39,4,5,7)          -167.8471                                         !
 ! D9    D(5,4,39,32)         -112.3986                                         !
 ! D10   D(4,5,7,8)             -0.1846                                         !
 ! D11   D(4,5,7,9)            179.1972                                         !
 ! D12   D(6,5,7,8)            179.3862                                         !
 ! D13   D(6,5,7,9)             -1.232                                          !
 ! D14   D(5,7,8,13)           113.5275                                         !
 ! D15   D(5,7,8,14)          -126.3893                                         !
 ! D16   D(5,7,8,15)            -6.3359                                         !
 ! D17   D(9,7,8,13)           -65.8757                                         !
 ! D18   D(9,7,8,14)            54.2075                                         !
 ! D19   D(9,7,8,15)           174.2609                                         !
 ! D20   D(5,7,9,10)             1.2482                                         !
 ! D21   D(5,7,9,11)          -118.8081                                         !
 ! D22   D(5,7,9,12)           121.3082                                         !
 ! D23   D(8,7,9,10)          -179.3506                                         !
 ! D24   D(8,7,9,11)            60.5931                                         !
 ! D25   D(8,7,9,12)           -59.2907                                         !
 ! D26   D(49,16,17,18)         -3.049                                          !
 ! D27   D(49,16,17,19)        176.9311                                         !
 ! D28   D(17,16,49,44)        159.0584                                         !
 ! D29   D(16,17,19,20)         -1.1138                                         !
 ! D30   D(16,17,19,21)       -178.4847                                         !
 ! D31   D(18,17,19,20)        178.868                                          !
 ! D32   D(18,17,19,21)          1.4971                                         !
 ! D33   D(17,19,20,25)        125.2081                                         !
 ! D34   D(17,19,20,26)       -115.6543                                         !
 ! D35   D(17,19,20,27)          5.0576                                         !
 ! D36   D(21,19,20,25)        -57.3264                                         !
 ! D37   D(21,19,20,26)         61.8113                                         !
 ! D38   D(21,19,20,27)       -177.4769                                         !
 ! D39   D(17,19,21,22)         -1.8626                                         !
 ! D40   D(17,19,21,23)       -121.9238                                         !
 ! D41   D(17,19,21,24)        118.2319                                         !
 ! D42   D(20,19,21,22)       -179.3335                                         !
 ! D43   D(20,19,21,23)         60.6052                                         !
 ! D44   D(20,19,21,24)        -59.239                                          !
 ! D45   D(19,20,27,28)        168.221                                          !
 ! D46   D(25,20,27,28)         47.6456                                         !
 ! D47   D(26,20,27,28)        -70.751                                          !
 ! D48   D(20,27,28,1)        -149.4921                                         !
 ! D49   D(20,27,28,29)          2.7342                                         !
 ! D50   D(1,28,29,30)        -103.0133                                         !
 ! D51   D(1,28,29,31)          77.841                                          !
 ! D52   D(27,28,29,30)        114.143                                          !
 ! D53   D(27,28,29,31)        -65.0027                                         !
 ! D54   D(28,29,31,32)         -1.5975                                         !
 ! D55   D(28,29,31,33)       -179.7482                                         !
 ! D56   D(30,29,31,32)        179.1951                                         !
 ! D57   D(30,29,31,33)          1.0443                                         !
 ! D58   D(29,31,32,37)        120.544                                          !
 ! D59   D(29,31,32,38)       -120.1278                                         !
 ! D60   D(29,31,32,39)         -0.7002                                         !
 ! D61   D(33,31,32,37)        -61.2403                                         !
 ! D62   D(33,31,32,38)         58.088                                          !
 ! D63   D(33,31,32,39)        177.5156                                         !
 ! D64   D(29,31,33,34)         -2.5788                                         !
 ! D65   D(29,31,33,35)       -122.7653                                         !
 ! D66   D(29,31,33,36)        117.4917                                         !
 ! D67   D(32,31,33,34)        179.1926                                         !
 ! D68   D(32,31,33,35)         59.0061                                         !
 ! D69   D(32,31,33,36)        -60.7369                                         !
 ! D70   D(31,32,39,4)        -136.8976                                         !
 ! D71   D(37,32,39,4)         102.1612                                         !
 ! D72   D(38,32,39,4)         -17.0988                                         !
 ! D73   D(1,40,41,42)         138.2226                                         !
 ! D74   D(1,40,41,43)         -42.0538                                         !
 ! D75   D(40,41,43,44)         -1.027                                          !
 ! D76   D(40,41,43,45)        175.1109                                         !
 ! D77   D(42,41,43,44)        178.7161                                         !
 ! D78   D(42,41,43,45)         -5.146                                          !
 ! D79   D(41,43,44,49)         88.811                                          !
 ! D80   D(41,43,44,50)       -150.2925                                         !
 ! D81   D(41,43,44,51)        -30.7541                                         !
 ! D82   D(45,43,44,49)        -87.4387                                         !
 ! D83   D(45,43,44,50)         33.4578                                         !
 ! D84   D(45,43,44,51)        152.9962                                         !
 ! D85   D(41,43,45,46)          3.4045                                         !
 ! D86   D(41,43,45,47)       -116.332                                          !
 ! D87   D(41,43,45,48)        123.6387                                         !
 ! D88   D(44,43,45,46)        179.6477                                         !
 ! D89   D(44,43,45,47)         59.9113                                         !
 ! D90   D(44,43,45,48)        -60.118                                          !
 ! D91   D(43,44,49,16)        -91.4161                                         !
 ! D92   D(50,44,49,16)        148.1952                                         !
 ! D93   D(51,44,49,16)         28.9387                                         !
 --------------------------------------------------------------------------------
 Stoichiometry    C12H28Cl2N4O4Pb
 Framework group  C1[X(C12H28Cl2N4O4Pb)]
 Deg. of freedom   147
 Full point group                 C1      NOp   1
 Largest Abelian subgroup         C1      NOp   1
 Largest concise Abelian subgroup C1      NOp   1
                         Standard orientation:                         
 ---------------------------------------------------------------------
 Center     Atomic      Atomic             Coordinates (Angstroms)
 Number     Number       Type             X           Y           Z
 ---------------------------------------------------------------------
      1         82           0        0.379425   -0.830646    0.063008
      2         17           0        2.115449   -1.943311   -1.621208
      3         17           0        0.704482   -2.671771    1.998238
      4          8           0        0.169542    1.391638   -1.637088
      5          6           0       -0.601569    2.371948   -1.648176
      6          1           0       -0.225540    3.423535   -1.585687
      7          7           0       -1.951289    2.311708   -1.742890
      8          6           0       -2.637900    1.033889   -1.847980
      9          6           0       -2.763710    3.517030   -1.729800
     10          1           0       -2.108123    4.404584   -1.658122
     11          1           0       -3.457647    3.512064   -0.863168
     12          1           0       -3.367825    3.589975   -2.657393
     13          1           0       -3.251857    0.843397   -0.943259
     14          1           0       -3.303539    1.031767   -2.734684
     15          1           0       -1.881812    0.236673   -1.948672
     16          8           0       -1.329446    0.931245    1.519729
     17          6           0       -1.747786    2.103687    1.585533
     18          1           0       -2.841327    2.340717    1.620062
     19          7           0       -0.980659    3.219887    1.624045
     20          6           0        0.472827    3.140972    1.614292
     21          6           0       -1.578926    4.540682    1.733756
     22          1           0       -2.681095    4.450735    1.741016
     23          1           0       -1.275695    5.176947    0.876407
     24          1           0       -1.253063    5.039992    2.669820
     25          1           0        0.880258    3.752326    0.782935
     26          1           0        0.884054    3.534997    2.567271
     27          1           0        0.784619    2.091631    1.481601
     28          8           0        2.305984    0.445148    1.067016
     29          6           0        3.539744    0.335258    0.853544
     30          1           0        4.210753   -0.187560    1.576681
     31          7           0        4.194304    0.822391   -0.214085
     32          6           0        3.497373    1.524403   -1.283817
     33          6           0        5.629354    0.632067   -0.364214
     34          1           0        6.029378    0.102114    0.519452
     35          1           0        6.138530    1.612485   -0.460974
     36          1           0        5.843049    0.033134   -1.273062
     37          1           0        3.902060    2.552799   -1.382415
     38          1           0        3.651708    0.986588   -2.240567
     39          1           0        2.416048    1.559329   -1.064344
     40          8           0       -1.504464   -2.237629   -1.089224
     41          6           0       -2.757557   -2.266834   -1.082020
     42          1           0       -3.338268   -2.409152   -2.026183
     43          7           0       -3.543658   -2.143352    0.004904
     44          6           0       -2.962354   -1.977841    1.334604
     45          6           0       -4.993205   -2.087322   -0.120239
     46          1           0       -5.278213   -2.221894   -1.179944
     47          1           0       -5.373626   -1.105393    0.229948
     48          1           0       -5.465905   -2.885284    0.487282
     49          1           0       -2.792554   -0.905179    1.567665
     50          1           0       -3.649718   -2.416942    2.081562
     51          1           0       -1.987874   -2.500352    1.380422
 ---------------------------------------------------------------------
 Rotational constants (GHZ):           0.1824746           0.1485775           0.1095070
 General basis read from cards:  (5D, 7F)
 ======================================================================================================
                                       Pseudopotential Parameters
 ======================================================================================================
  Center     Atomic      Valence      Angular      Power
  Number     Number     Electrons     Momentum     of R      Exponent        Coefficient   SO-Coeffient
 ======================================================================================================
    1         82            4
                                      G and up 
                                                     0      376.5803786       -0.17896050    0.00000000
                                                     1       86.4840014      -54.39723370    0.00000000
                                                     2       26.6784276     -199.70617590    0.00000000
                                                     2        9.4261986      -79.12239410    0.00000000
                                                     2        2.7101719      -24.98690200    0.00000000
                                                     2        0.8792031       -4.43979390    0.00000000
                                      S - G
                                                     0      132.4248796        2.81153860    0.00000000
                                                     1       47.2376044       65.03672050    0.00000000
                                                     2       17.6312727      212.78685450    0.00000000
                                                     2        5.4744712       72.10531750    0.00000000
                                                     2        1.2634856       33.01409400    0.00000000
                                                     2        0.7651447       -5.77084610    0.00000000
                                      P - G
                                                     0       67.8966454        4.87549110    0.00000000
                                                     1       24.9898225       63.91481020    0.00000000
                                                     2       10.7052939      148.10643580    0.00000000
                                                     2        3.2792568       47.31063010    0.00000000
                                                     2        0.8452522       21.03067020    0.00000000
                                                     2        0.6416245       -7.09307720    0.00000000
                                      D - G
                                                     0       68.8336005        3.21613880    0.00000000
                                                     1       24.2815874       55.73860860    0.00000000
                                                     2        9.4532762      121.41683510    0.00000000
                                                     2        2.4788185       19.34560640    0.00000000
                                                     2        2.4789161       15.36751680    0.00000000
                                                     2        0.5551738        6.12987240    0.00000000
                                      F - G
                                                     0      128.1021322        4.13536820    0.00000000
                                                     1       54.8029154       67.51284460    0.00000000
                                                     2       24.5529308      258.73731070    0.00000000
                                                     2        8.1144792      113.24782640    0.00000000
                                                     2        1.6931290       34.16802010    0.00000000
                                                     2        0.7670500       -6.55319560    0.00000000
    2         17
                                   No pseudopotential on this center.
    3         17
                                   No pseudopotential on this center.
    4          8
                                   No pseudopotential on this center.
    5          6
                                   No pseudopotential on this center.
    6          1
                                   No pseudopotential on this center.
    7          7
                                   No pseudopotential on this center.
    8          6
                                   No pseudopotential on this center.
    9          6
                                   No pseudopotential on this center.
   10          1
                                   No pseudopotential on this center.
   11          1
                                   No pseudopotential on this center.
   12          1
                                   No pseudopotential on this center.
   13          1
                                   No pseudopotential on this center.
   14          1
                                   No pseudopotential on this center.
   15          1
                                   No pseudopotential on this center.
   16          8
                                   No pseudopotential on this center.
   17          6
                                   No pseudopotential on this center.
   18          1
                                   No pseudopotential on this center.
   19          7
                                   No pseudopotential on this center.
   20          6
                                   No pseudopotential on this center.
   21          6
                                   No pseudopotential on this center.
   22          1
                                   No pseudopotential on this center.
   23          1
                                   No pseudopotential on this center.
   24          1
                                   No pseudopotential on this center.
   25          1
                                   No pseudopotential on this center.
   26          1
                                   No pseudopotential on this center.
   27          1
                                   No pseudopotential on this center.
   28          8
                                   No pseudopotential on this center.
   29          6
                                   No pseudopotential on this center.
   30          1
                                   No pseudopotential on this center.
   31          7
                                   No pseudopotential on this center.
   32          6
                                   No pseudopotential on this center.
   33          6
                                   No pseudopotential on this center.
   34          1
                                   No pseudopotential on this center.
   35          1
                                   No pseudopotential on this center.
   36          1
                                   No pseudopotential on this center.
   37          1
                                   No pseudopotential on this center.
   38          1
                                   No pseudopotential on this center.
   39          1
                                   No pseudopotential on this center.
   40          8
                                   No pseudopotential on this center.
   41          6
                                   No pseudopotential on this center.
   42          1
                                   No pseudopotential on this center.
   43          7
                                   No pseudopotential on this center.
   44          6
                                   No pseudopotential on this center.
   45          6
                                   No pseudopotential on this center.
   46          1
                                   No pseudopotential on this center.
   47          1
                                   No pseudopotential on this center.
   48          1
                                   No pseudopotential on this center.
   49          1
                                   No pseudopotential on this center.
   50          1
                                   No pseudopotential on this center.
   51          1
                                   No pseudopotential on this center.
 ======================================================================================================
 There are  1206 symmetry adapted cartesian basis functions of A   symmetry.
 There are  1068 symmetry adapted basis functions of A   symmetry.
  1068 basis functions,  1716 primitive gaussians,  1206 cartesian basis functions
    99 alpha electrons       99 beta electrons
       nuclear repulsion energy      2367.2640534816 Hartrees.
 NAtoms=   51 NActive=   51 NUniq=   51 SFac= 1.00D+00 NAtFMM=   60 NAOKFM=F Big=F
 Integral buffers will be    131072 words long.
 Raffenetti 1 integral format.
 Two-electron integral symmetry is turned on.
 Nuclear repulsion after empirical dispersion term =     2367.2070677710 Hartrees.
 ------------------------------------------------------------------------------
 Polarizable Continuum Model (PCM)
 =================================
 Model                : PCM.
 Atomic radii         : UFF (Universal Force Field).
 Polarization charges : Total charges.
 Charge compensation  : None.
 Solution method      : On-the-fly selection.
 Cavity type          : Scaled VdW (van der Waals Surface) (Alpha=1.100).
 Cavity algorithm     : GePol (No added spheres)
                        Default sphere list used, NSphG=   51.
                        Lebedev-Laikov grids with approx.  5.0 points / Ang**2.
                        Smoothing algorithm: York/Karplus (Gamma=1.0000).
                        Polarization charges: spherical gaussians, with
                                              point-specific exponents (IZeta= 3).
                        Self-potential: point-specific (ISelfS= 7).
                        Self-field    : sphere-specific E.n sum rule (ISelfD= 2).
 Solvent              : n,n-DiMethylFormamide, Eps=  37.219000 Eps(inf)=   2.046330
 ------------------------------------------------------------------------------
 One-electron integrals computed using PRISM.
   1 Symmetry operations used in ECPInt.
 ECPInt:  NShTT=   78606 NPrTT=  308884 LenC2=   62411 LenP2D=  148196.
 LDataN:  DoStor=T MaxTD1= 7 Len=  274
 NBasis=  1068 RedAO= T EigKep=  5.71D-04  NBF=  1068
 NBsUse=  1068 1.00D-06 EigRej= -1.00D+00 NBFU=  1068
 Defaulting to unpruned grid for atomic number  82.
 Initial guess from the checkpoint file:  "02-PbCl2_DMF.chk"
 B after Tr=    -0.000000    0.000000   -0.000000
         Rot=    1.000000   -0.000000   -0.000000   -0.000000 Ang=   0.00 deg.
 Requested convergence on RMS density matrix=1.00D-08 within 128 cycles.
 Requested convergence on MAX density matrix=1.00D-06.
 Requested convergence on             energy=1.00D-06.
 No special actions if energy rises.
 Defaulting to unpruned grid for atomic number  82.
 Defaulting to unpruned grid for atomic number  82.
 Defaulting to unpruned grid for atomic number  82.
 Defaulting to unpruned grid for atomic number  82.
 Defaulting to unpruned grid for atomic number  82.
 Inv3:  Mode=1 IEnd=    41492883.
 Iteration    1 A*A^-1 deviation from unit magnitude is 2.66D-15 for   2043.
 Iteration    1 A*A^-1 deviation from orthogonality  is 1.78D-15 for   3002    772.
 Iteration    1 A^-1*A deviation from unit magnitude is 2.78D-15 for   2616.
 Iteration    1 A^-1*A deviation from orthogonality  is 2.00D-15 for   3064   2133.
 Error on total polarization charges =  0.02083
 SCF Done:  E(RCAM-B3LYP) =  -1918.13443722     A.U. after   11 cycles
            NFock= 11  Conv=0.57D-08     -V/T= 2.0064
 DoSCS=F DFT=T ScalE2(SS,OS)=  1.000000  1.000000
 ExpMin= 5.98D-02 ExpMax= 4.56D+05 ExpMxC= 1.44D+03 IAcc=3 IRadAn=         5 AccDes= 0.00D+00
 HarFok:  IExCor=  205 AccDes= 0.00D+00 IRadAn=         5 IDoV=-2 UseB2=F ITyADJ=14
 ICtDFT= 12500011 ScaDFX=  1.000000  1.000000  1.000000  1.000000
 Defaulting to unpruned grid for atomic number  82.
 GSVD:  LWork=       -1140 too small for GESVD, short by        4950 words or        4950 for optimal perf.
 Range of M.O.s used for correlation:    31  1068
 NBasis=  1068 NAE=    99 NBE=    99 NFC=    30 NFV=     0
 NROrb=   1038 NOA=    69 NOB=    69 NVA=   969 NVB=   969
 NEqPCM:  Using non-equilibrium solvation (IEInf=1, Eps=  37.2190, EpsInf=   2.0463)
 Inv3:  Mode=1 IEnd=    41492883.
 Iteration    1 A*A^-1 deviation from unit magnitude is 4.00D-15 for    221.
 Iteration    1 A*A^-1 deviation from orthogonality  is 2.95D-15 for   3683   3319.
 Iteration    1 A^-1*A deviation from unit magnitude is 3.55D-15 for    221.
 Iteration    1 A^-1*A deviation from orthogonality  is 2.33D-15 for   2481   1655.
 Orbital symmetries:
       Occupied  (A) (A) (A) (A) (A) (A) (A) (A) (A) (A) (A) (A)
                 (A) (A) (A) (A) (A) (A) (A) (A) (A) (A) (A) (A)
                 (A) (A) (A) (A) (A) (A) (A) (A) (A) (A) (A) (A)
                 (A) (A) (A) (A) (A) (A) (A) (A) (A) (A) (A) (A)
                 (A) (A) (A) (A) (A) (A) (A) (A) (A) (A) (A) (A)
                 (A) (A) (A) (A) (A) (A) (A) (A) (A) (A) (A) (A)
                 (A) (A) (A) (A) (A) (A) (A) (A) (A) (A) (A) (A)
                 (A) (A) (A) (A) (A) (A) (A) (A) (A) (A) (A) (A)
                 (A) (A) (A)
       Virtual   (A) (A) (A) (A) (A) (A) (A) (A) (A) (A) (A) (A)
                 (A) (A) (A) (A) (A) (A) (A) (A) (A) (A) (A) (A)
                 (A) (A) (A) (A) (A) (A) (A) (A) (A) (A) (A) (A)
                 (A) (A) (A) (A) (A) (A) (A) (A) (A) (A) (A) (A)
                 (A) (A) (A) (A) (A) (A) (A) (A) (A) (A) (A) (A)
                 (A) (A) (A) (A) (A) (A) (A) (A) (A) (A) (A) (A)
                 (A) (A) (A) (A) (A) (A) (A) (A) (A) (A) (A) (A)
                 (A) (A) (A) (A) (A) (A) (A) (A) (A) (A) (A) (A)
                 (A) (A) (A) (A) (A) (A) (A) (A) (A) (A) (A) (A)
                 (A) (A) (A) (A) (A) (A) (A) (A) (A) (A) (A) (A)
                 (A) (A) (A) (A) (A) (A) (A) (A) (A) (A) (A) (A)
                 (A) (A) (A) (A) (A) (A) (A) (A) (A) (A) (A) (A)
                 (A) (A) (A) (A) (A) (A) (A) (A) (A) (A) (A) (A)
                 (A) (A) (A) (A) (A) (A) (A) (A) (A) (A) (A) (A)
                 (A) (A) (A) (A) (A) (A) (A) (A) (A) (A) (A) (A)
                 (A) (A) (A) (A) (A) (A) (A) (A) (A) (A) (A) (A)
                 (A) (A) (A) (A) (A) (A) (A) (A) (A) (A) (A) (A)
                 (A) (A) (A) (A) (A) (A) (A) (A) (A) (A) (A) (A)
                 (A) (A) (A) (A) (A) (A) (A) (A) (A) (A) (A) (A)
                 (A) (A) (A) (A) (A) (A) (A) (A) (A) (A) (A) (A)
                 (A) (A) (A) (A) (A) (A) (A) (A) (A) (A) (A) (A)
                 (A) (A) (A) (A) (A) (A) (A) (A) (A) (A) (A) (A)
                 (A) (A) (A) (A) (A) (A) (A) (A) (A) (A) (A) (A)
                 (A) (A) (A) (A) (A) (A) (A) (A) (A) (A) (A) (A)
                 (A) (A) (A) (A) (A) (A) (A) (A) (A) (A) (A) (A)
                 (A) (A) (A) (A) (A) (A) (A) (A) (A) (A) (A) (A)
                 (A) (A) (A) (A) (A) (A) (A) (A) (A) (A) (A) (A)
                 (A) (A) (A) (A) (A) (A) (A) (A) (A) (A) (A) (A)
                 (A) (A) (A) (A) (A) (A) (A) (A) (A) (A) (A) (A)
                 (A) (A) (A) (A) (A) (A) (A) (A) (A) (A) (A) (A)
                 (A) (A) (A) (A) (A) (A) (A) (A) (A) (A) (A) (A)
                 (A) (A) (A) (A) (A) (A) (A) (A) (A) (A) (A) (A)
                 (A) (A) (A) (A) (A) (A) (A) (A) (A) (A) (A) (A)
                 (A) (A) (A) (A) (A) (A) (A) (A) (A) (A) (A) (A)
                 (A) (A) (A) (A) (A) (A) (A) (A) (A) (A) (A) (A)
                 (A) (A) (A) (A) (A) (A) (A) (A) (A) (A) (A) (A)
                 (A) (A) (A) (A) (A) (A) (A) (A) (A) (A) (A) (A)
                 (A) (A) (A) (A) (A) (A) (A) (A) (A) (A) (A) (A)
                 (A) (A) (A) (A) (A) (A) (A) (A) (A) (A) (A) (A)
                 (A) (A) (A) (A) (A) (A) (A) (A) (A) (A) (A) (A)
                 (A) (A) (A) (A) (A) (A) (A) (A) (A) (A) (A) (A)
                 (A) (A) (A) (A) (A) (A) (A) (A) (A) (A) (A) (A)
                 (A) (A) (A) (A) (A) (A) (A) (A) (A) (A) (A) (A)
                 (A) (A) (A) (A) (A) (A) (A) (A) (A) (A) (A) (A)
                 (A) (A) (A) (A) (A) (A) (A) (A) (A) (A) (A) (A)
                 (A) (A) (A) (A) (A) (A) (A) (A) (A) (A) (A) (A)
                 (A) (A) (A) (A) (A) (A) (A) (A) (A) (A) (A) (A)
                 (A) (A) (A) (A) (A) (A) (A) (A) (A) (A) (A) (A)
                 (A) (A) (A) (A) (A) (A) (A) (A) (A) (A) (A) (A)
                 (A) (A) (A) (A) (A) (A) (A) (A) (A) (A) (A) (A)
                 (A) (A) (A) (A) (A) (A) (A) (A) (A) (A) (A) (A)
                 (A) (A) (A) (A) (A) (A) (A) (A) (A) (A) (A) (A)
                 (A) (A) (A) (A) (A) (A) (A) (A) (A) (A) (A) (A)
                 (A) (A) (A) (A) (A) (A) (A) (A) (A) (A) (A) (A)
                 (A) (A) (A) (A) (A) (A) (A) (A) (A) (A) (A) (A)
                 (A) (A) (A) (A) (A) (A) (A) (A) (A) (A) (A) (A)
                 (A) (A) (A) (A) (A) (A) (A) (A) (A) (A) (A) (A)
                 (A) (A) (A) (A) (A) (A) (A) (A) (A) (A) (A) (A)
                 (A) (A) (A) (A) (A) (A) (A) (A) (A) (A) (A) (A)
                 (A) (A) (A) (A) (A) (A) (A) (A) (A) (A) (A) (A)
                 (A) (A) (A) (A) (A) (A) (A) (A) (A) (A) (A) (A)
                 (A) (A) (A) (A) (A) (A) (A) (A) (A) (A) (A) (A)
                 (A) (A) (A) (A) (A) (A) (A) (A) (A) (A) (A) (A)
                 (A) (A) (A) (A) (A) (A) (A) (A) (A) (A) (A) (A)
                 (A) (A) (A) (A) (A) (A) (A) (A) (A) (A) (A) (A)
                 (A) (A) (A) (A) (A) (A) (A) (A) (A) (A) (A) (A)
                 (A) (A) (A) (A) (A) (A) (A) (A) (A) (A) (A) (A)
                 (A) (A) (A) (A) (A) (A) (A) (A) (A) (A) (A) (A)
                 (A) (A) (A) (A) (A) (A) (A) (A) (A) (A) (A) (A)
                 (A) (A) (A) (A) (A) (A) (A) (A) (A) (A) (A) (A)
                 (A) (A) (A) (A) (A) (A) (A) (A) (A) (A) (A) (A)
                 (A) (A) (A) (A) (A) (A) (A) (A) (A) (A) (A) (A)
                 (A) (A) (A) (A) (A) (A) (A) (A) (A) (A) (A) (A)
                 (A) (A) (A) (A) (A) (A) (A) (A) (A) (A) (A) (A)
                 (A) (A) (A) (A) (A) (A) (A) (A) (A) (A) (A) (A)
                 (A) (A) (A) (A) (A) (A) (A) (A) (A) (A) (A) (A)
                 (A) (A) (A) (A) (A) (A) (A) (A) (A) (A) (A) (A)
                 (A) (A) (A) (A) (A) (A) (A) (A) (A) (A) (A) (A)
                 (A) (A) (A) (A) (A) (A) (A) (A) (A) (A) (A) (A)
                 (A) (A) (A) (A) (A) (A) (A) (A) (A) (A) (A) (A)
                 (A) (A) (A) (A) (A) (A) (A) (A) (A)
    40 initial guesses have been made.
 Convergence on wavefunction:    0.001000000000000
 Iteration     1 Dimension    40 NMult     0 NNew     40
 CISAX will form    40 AO SS matrices at one time.
 Defaulting to unpruned grid for atomic number  82.
 Defaulting to unpruned grid for atomic number  82.
 Defaulting to unpruned grid for atomic number  82.
 Defaulting to unpruned grid for atomic number  82.
 Defaulting to unpruned grid for atomic number  82.
 New state      5 was old state      8
 New state      6 was old state     10
 New state      7 was old state     16
 New state      8 was old state     12
 New state      9 was old state     18
 New state     10 was old state      5
 Iteration     2 Dimension    60 NMult    40 NNew     20
 New state      6 was old state      7
 New state      7 was old state      6
 New state      9 was old state     10
 New state     10 was old state      9
 Iteration     3 Dimension    80 NMult    60 NNew     20
 New state      2 was old state      3
 New state      3 was old state      4
 New state      4 was old state      2
 New state      7 was old state      8
 New state      8 was old state      7
 No map to state     10
 Iteration     4 Dimension   100 NMult    80 NNew     20
 New state      3 was old state      4
 New state      4 was old state      3
 New state      6 was old state      7
 New state      7 was old state      6
 Iteration     5 Dimension   120 NMult   100 NNew     20
 Iteration     6 Dimension   140 NMult   120 NNew     20
 Iteration     7 Dimension   160 NMult   140 NNew     20
 Iteration     8 Dimension   168 NMult   160 NNew      8
 Iteration     9 Dimension   172 NMult   168 NNew      4
 ***********************************************************************
 Excited states from <AA,BB:AA,BB> singles matrix:
 ***********************************************************************
 
 Ground to excited state transition densities written to RWF  633
 Ground to excited state transition electric dipole moments (Au):
       state          X           Y           Z        Dip. S.      Osc.
         1        -1.2719     -0.1164      0.0411      1.6328      0.2266
         2         0.2482     -0.4774      0.1680      0.3178      0.0451
         3         0.0081     -0.2397      0.0003      0.0575      0.0082
         4         0.0025      0.0719     -0.0643      0.0093      0.0013
         5        -1.0779     -0.3182      0.1858      1.2976      0.1927
         6         0.9069     -1.7299      0.3867      3.9645      0.6110
         7         0.0252     -0.7009     -0.9218      1.3415      0.2094
         8         0.4458      0.3504     -0.0303      0.3225      0.0517
         9        -0.7937     -0.1673      0.9238      1.5114      0.2471
        10         1.3954      0.7152     -0.3848      2.6065      0.4319
 Ground to excited state transition velocity dipole moments (Au):
       state          X           Y           Z        Dip. S.      Osc.
         1         0.2290      0.0102     -0.0270      0.0533      0.1707
         2        -0.0503      0.0836     -0.0229      0.0100      0.0314
         3         0.0014      0.0420     -0.0082      0.0018      0.0057
         4         0.0016     -0.0092      0.0082      0.0002      0.0005
         5         0.2118      0.0618     -0.0619      0.0525      0.1572
         6        -0.1936      0.3426     -0.0721      0.1600      0.4615
         7         0.0302      0.1580      0.1634      0.0526      0.1497
         8        -0.1143     -0.0801      0.0074      0.0195      0.0542
         9         0.1998      0.0426     -0.2248      0.0923      0.2509
        10        -0.3280     -0.1798      0.0640      0.1440      0.3863
 Ground to excited state transition magnetic dipole moments (Au):
       state          X           Y           Z
         1        -0.0031      0.1757      0.5497
         2         0.9741     -0.4900      0.1903
         3        -0.1432     -0.9551     -0.1580
         4        -1.1087     -0.3217      0.5295
         5         0.2994      0.4623      0.4608
         6        -0.6883      1.3381      0.1876
         7        -0.1728     -0.2336     -1.2265
         8         1.2581     -2.3343      1.0401
         9         0.6377      0.2931      1.9428
        10         0.7775      0.8082      1.3436
 Ground to excited state transition velocity quadrupole moments (Au):
       state          XX          YY          ZZ          XY          XZ          YZ
         1         0.1582      0.0185      0.0320     -0.2079     -0.1556     -0.0481
         2         0.2878     -0.0234     -0.1585     -0.1530      0.1404      0.1994
         3        -0.0693      0.1488     -0.1075      0.0143      0.1553     -0.0305
         4        -0.2968      0.1055      0.0669      0.0243      0.1375      0.1509
         5         0.7338     -0.3083      0.0593     -0.0096     -0.2371     -0.1699
         6         0.7438      0.8220     -0.1638     -0.4354      0.5262      0.4320
         7        -1.2767      1.3249      0.0672      0.2437      0.3140      0.3498
         8        -3.4035      0.2373      0.2965     -1.7511      1.5030      0.3442
         9         0.8004     -0.4595      0.0092     -0.0800     -0.0789     -0.1568
        10         0.9792     -1.3708     -0.0914      0.0866      0.2077     -1.2607
 <0|del|b> * <b|rxdel|0> + <0|del|b> * <b|delr+rdel|0>
 Rotatory Strengths (R) in cgs (10**-40 erg-esu-cm/Gauss)
       state          XX          YY          ZZ    R(velocity)    E-M Angle
         1        -9.9770    -54.7187     17.8845    -15.6037       95.94
         2       -88.9531   -111.0532   -113.2490   -104.4184      148.23
         3       -75.3818      1.9315    -55.9713    -43.1406      158.65
         4        14.3561      4.3363     -0.4817      6.0702       69.36
         5        24.3106     -2.6811    179.9386     67.1894       67.31
         6       452.7688      7.1925   1308.6011    589.5208       17.63
         7      -373.2316   -354.8555     -4.6033   -244.2301      147.07
         8       444.3468   -239.0549    -55.7009     49.8637       82.66
         9      -581.0652   -517.2064    242.0718   -285.3999      118.24
        10       -23.4551    339.8842  -1210.9864   -298.1858      118.25
 1/2[<0|r|b>*<b|rxdel|0> + (<0|rxdel|b>*<b|r|0>)*]
 Rotatory Strengths (R) in cgs (10**-40 erg-esu-cm/Gauss)
       state          XX          YY          ZZ     R(length)
         1        -2.7657     14.4680    -15.9600     -1.4192
         2      -170.9503   -165.4347    -22.6094   -119.6648
         3         0.8221   -161.9336      0.0382    -53.6911
         4         1.9465     16.3654     24.0751     14.1290
         5       228.2029    104.0363    -60.5567     90.5608
         6       441.4809   1636.9433    -51.3115    675.7042
         7         3.0821   -115.7622   -799.4938   -304.0580
         8      -396.6395    578.4570     22.2879     68.0351
         9       357.9338     34.6675  -1269.1881   -292.1956
        10      -767.1578   -408.7403    365.5579   -270.1134
  1/2[<0|del|b>*<b|r|0> + (<0|r|b>*<b|del|0>)*] (Au)
       state          X           Y           Z        Dip. S.   Osc.(frdel)
         1        -0.2913     -0.0012     -0.0011      0.2936      0.1957
         2        -0.0125     -0.0399     -0.0038      0.0562      0.0375
         3         0.0000     -0.0101     -0.0000      0.0101      0.0067
         4         0.0000     -0.0007     -0.0005      0.0012      0.0008
         5        -0.2283     -0.0197     -0.0115      0.2595      0.1730
         6        -0.1756     -0.5927     -0.0279      0.7961      0.5307
         7         0.0008     -0.1107     -0.1507      0.2606      0.1737
         8        -0.0510     -0.0281     -0.0002      0.0792      0.0528
         9        -0.1586     -0.0071     -0.2077      0.3734      0.2490
        10        -0.4577     -0.1286     -0.0246      0.6110      0.4073

 Excitation energies and oscillator strengths:
 
 Excited State   1:      Singlet-A      5.6634 eV  218.92 nm  f=0.2266  <S**2>=0.000
      86 -> 103       -0.11824
      87 -> 100       -0.18547
      88 -> 103        0.11223
      89 -> 103        0.11279
      94 -> 100       -0.11682
      99 -> 100        0.55676
 This state for optimization and/or second-order correction.
 Total Energy, E(TD-HF/TD-DFT) =  -1917.92630951    
 Copying the excited state density for this state as the 1-particle RhoCI density.
 
 Excited State   2:      Singlet-A      5.7905 eV  214.12 nm  f=0.0451  <S**2>=0.000
      88 -> 101        0.31904
      88 -> 102       -0.10794
      88 -> 103        0.18268
      88 -> 107       -0.12991
      89 -> 101       -0.12927
      90 -> 101        0.21056
      90 -> 102       -0.10506
      90 -> 103        0.12875
      91 -> 101        0.18215
      99 -> 101        0.31507
 
 Excited State   3:      Singlet-A      5.8058 eV  213.55 nm  f=0.0082  <S**2>=0.000
      89 -> 100        0.10757
      89 -> 101       -0.10718
      89 -> 102       -0.31942
      89 -> 103        0.12410
      89 -> 105        0.10892
      90 -> 101       -0.13953
      90 -> 102       -0.33026
      90 -> 105        0.11768
      91 -> 102        0.12602
      99 -> 102        0.25265
 
 Excited State   4:      Singlet-A      5.8773 eV  210.95 nm  f=0.0013  <S**2>=0.000
      86 -> 100       -0.24437
      87 -> 103       -0.29136
      88 -> 100        0.28680
      88 -> 101        0.11356
      88 -> 103       -0.10338
      89 -> 100        0.15721
      90 -> 100       -0.17138
      94 -> 103       -0.12237
      99 -> 103        0.22199
 
 Excited State   5:      Singlet-A      6.0603 eV  204.58 nm  f=0.1927  <S**2>=0.000
      86 -> 103        0.15487
      87 -> 100        0.29432
      88 -> 100        0.10167
      88 -> 103       -0.15363
      89 -> 103       -0.14008
      90 -> 103        0.12662
      95 -> 100        0.11032
      96 -> 103        0.10491
      97 -> 100        0.13606
      99 -> 100        0.32585
      99 -> 103       -0.11860
      99 -> 108       -0.10316
 
 Excited State   6:      Singlet-A      6.2908 eV  197.09 nm  f=0.6110  <S**2>=0.000
      88 -> 101       -0.11343
      94 -> 101        0.18270
      98 -> 101        0.11035
      98 -> 102       -0.16748
      98 -> 103        0.10082
      99 -> 101        0.47271
      99 -> 102        0.10845
      99 -> 104       -0.16941
      99 -> 107        0.16448
 
 Excited State   7:      Singlet-A      6.3708 eV  194.61 nm  f=0.2094  <S**2>=0.000
      94 -> 102        0.14141
      98 -> 101       -0.15340
      98 -> 102       -0.19139
      99 -> 101       -0.10365
      99 -> 102        0.43553
      99 -> 104       -0.10668
      99 -> 105        0.31825
 
 Excited State   8:      Singlet-A      6.5413 eV  189.54 nm  f=0.0517  <S**2>=0.000
      94 -> 101        0.10077
      95 -> 100       -0.28467
      96 -> 100        0.35990
      97 -> 101       -0.10130
      97 -> 102        0.10523
      97 -> 103        0.20280
      98 -> 101        0.11181
      99 -> 103        0.30278
 
 Excited State   9:      Singlet-A      6.6727 eV  185.81 nm  f=0.2471  <S**2>=0.000
      93 -> 100       -0.20201
      95 -> 100        0.18944
      95 -> 103       -0.13357
      96 -> 101       -0.11190
      96 -> 103        0.19177
      97 -> 100        0.43647
      98 -> 101        0.10491
      99 -> 100       -0.15984
      99 -> 103        0.14083
 
 Excited State  10:      Singlet-A      6.7636 eV  183.31 nm  f=0.4319  <S**2>=0.000
      94 -> 102       -0.16230
      96 -> 100       -0.12422
      98 -> 100       -0.18362
      98 -> 101        0.28806
      98 -> 102        0.28881
      99 -> 104       -0.10025
      99 -> 105        0.35768
 SavETr:  write IOETrn=   770 NScale= 10 NData=  16 NLR=1 NState=   10 LETran=     190.

 **********************************************************************

            Population analysis using the SCF Density.

 **********************************************************************

 Orbital symmetries:
       Occupied  (A) (A) (A) (A) (A) (A) (A) (A) (A) (A) (A) (A)
                 (A) (A) (A) (A) (A) (A) (A) (A) (A) (A) (A) (A)
                 (A) (A) (A) (A) (A) (A) (A) (A) (A) (A) (A) (A)
                 (A) (A) (A) (A) (A) (A) (A) (A) (A) (A) (A) (A)
                 (A) (A) (A) (A) (A) (A) (A) (A) (A) (A) (A) (A)
                 (A) (A) (A) (A) (A) (A) (A) (A) (A) (A) (A) (A)
                 (A) (A) (A) (A) (A) (A) (A) (A) (A) (A) (A) (A)
                 (A) (A) (A) (A) (A) (A) (A) (A) (A) (A) (A) (A)
                 (A) (A) (A)
       Virtual   (A) (A) (A) (A) (A) (A) (A) (A) (A) (A) (A) (A)
                 (A) (A) (A) (A) (A) (A) (A) (A) (A) (A) (A) (A)
                 (A) (A) (A) (A) (A) (A) (A) (A) (A) (A) (A) (A)
                 (A) (A) (A) (A) (A) (A) (A) (A) (A) (A) (A) (A)
                 (A) (A) (A) (A) (A) (A) (A) (A) (A) (A) (A) (A)
                 (A) (A) (A) (A) (A) (A) (A) (A) (A) (A) (A) (A)
                 (A) (A) (A) (A) (A) (A) (A) (A) (A) (A) (A) (A)
                 (A) (A) (A) (A) (A) (A) (A) (A) (A) (A) (A) (A)
                 (A) (A) (A) (A) (A) (A) (A) (A) (A) (A) (A) (A)
                 (A) (A) (A) (A) (A) (A) (A) (A) (A) (A) (A) (A)
                 (A) (A) (A) (A) (A) (A) (A) (A) (A) (A) (A) (A)
                 (A) (A) (A) (A) (A) (A) (A) (A) (A) (A) (A) (A)
                 (A) (A) (A) (A) (A) (A) (A) (A) (A) (A) (A) (A)
                 (A) (A) (A) (A) (A) (A) (A) (A) (A) (A) (A) (A)
                 (A) (A) (A) (A) (A) (A) (A) (A) (A) (A) (A) (A)
                 (A) (A) (A) (A) (A) (A) (A) (A) (A) (A) (A) (A)
                 (A) (A) (A) (A) (A) (A) (A) (A) (A) (A) (A) (A)
                 (A) (A) (A) (A) (A) (A) (A) (A) (A) (A) (A) (A)
                 (A) (A) (A) (A) (A) (A) (A) (A) (A) (A) (A) (A)
                 (A) (A) (A) (A) (A) (A) (A) (A) (A) (A) (A) (A)
                 (A) (A) (A) (A) (A) (A) (A) (A) (A) (A) (A) (A)
                 (A) (A) (A) (A) (A) (A) (A) (A) (A) (A) (A) (A)
                 (A) (A) (A) (A) (A) (A) (A) (A) (A) (A) (A) (A)
                 (A) (A) (A) (A) (A) (A) (A) (A) (A) (A) (A) (A)
                 (A) (A) (A) (A) (A) (A) (A) (A) (A) (A) (A) (A)
                 (A) (A) (A) (A) (A) (A) (A) (A) (A) (A) (A) (A)
                 (A) (A) (A) (A) (A) (A) (A) (A) (A) (A) (A) (A)
                 (A) (A) (A) (A) (A) (A) (A) (A) (A) (A) (A) (A)
                 (A) (A) (A) (A) (A) (A) (A) (A) (A) (A) (A) (A)
                 (A) (A) (A) (A) (A) (A) (A) (A) (A) (A) (A) (A)
                 (A) (A) (A) (A) (A) (A) (A) (A) (A) (A) (A) (A)
                 (A) (A) (A) (A) (A) (A) (A) (A) (A) (A) (A) (A)
                 (A) (A) (A) (A) (A) (A) (A) (A) (A) (A) (A) (A)
                 (A) (A) (A) (A) (A) (A) (A) (A) (A) (A) (A) (A)
                 (A) (A) (A) (A) (A) (A) (A) (A) (A) (A) (A) (A)
                 (A) (A) (A) (A) (A) (A) (A) (A) (A) (A) (A) (A)
                 (A) (A) (A) (A) (A) (A) (A) (A) (A) (A) (A) (A)
                 (A) (A) (A) (A) (A) (A) (A) (A) (A) (A) (A) (A)
                 (A) (A) (A) (A) (A) (A) (A) (A) (A) (A) (A) (A)
                 (A) (A) (A) (A) (A) (A) (A) (A) (A) (A) (A) (A)
                 (A) (A) (A) (A) (A) (A) (A) (A) (A) (A) (A) (A)
                 (A) (A) (A) (A) (A) (A) (A) (A) (A) (A) (A) (A)
                 (A) (A) (A) (A) (A) (A) (A) (A) (A) (A) (A) (A)
                 (A) (A) (A) (A) (A) (A) (A) (A) (A) (A) (A) (A)
                 (A) (A) (A) (A) (A) (A) (A) (A) (A) (A) (A) (A)
                 (A) (A) (A) (A) (A) (A) (A) (A) (A) (A) (A) (A)
                 (A) (A) (A) (A) (A) (A) (A) (A) (A) (A) (A) (A)
                 (A) (A) (A) (A) (A) (A) (A) (A) (A) (A) (A) (A)
                 (A) (A) (A) (A) (A) (A) (A) (A) (A) (A) (A) (A)
                 (A) (A) (A) (A) (A) (A) (A) (A) (A) (A) (A) (A)
                 (A) (A) (A) (A) (A) (A) (A) (A) (A) (A) (A) (A)
                 (A) (A) (A) (A) (A) (A) (A) (A) (A) (A) (A) (A)
                 (A) (A) (A) (A) (A) (A) (A) (A) (A) (A) (A) (A)
                 (A) (A) (A) (A) (A) (A) (A) (A) (A) (A) (A) (A)
                 (A) (A) (A) (A) (A) (A) (A) (A) (A) (A) (A) (A)
                 (A) (A) (A) (A) (A) (A) (A) (A) (A) (A) (A) (A)
                 (A) (A) (A) (A) (A) (A) (A) (A) (A) (A) (A) (A)
                 (A) (A) (A) (A) (A) (A) (A) (A) (A) (A) (A) (A)
                 (A) (A) (A) (A) (A) (A) (A) (A) (A) (A) (A) (A)
                 (A) (A) (A) (A) (A) (A) (A) (A) (A) (A) (A) (A)
                 (A) (A) (A) (A) (A) (A) (A) (A) (A) (A) (A) (A)
                 (A) (A) (A) (A) (A) (A) (A) (A) (A) (A) (A) (A)
                 (A) (A) (A) (A) (A) (A) (A) (A) (A) (A) (A) (A)
                 (A) (A) (A) (A) (A) (A) (A) (A) (A) (A) (A) (A)
                 (A) (A) (A) (A) (A) (A) (A) (A) (A) (A) (A) (A)
                 (A) (A) (A) (A) (A) (A) (A) (A) (A) (A) (A) (A)
                 (A) (A) (A) (A) (A) (A) (A) (A) (A) (A) (A) (A)
                 (A) (A) (A) (A) (A) (A) (A) (A) (A) (A) (A) (A)
                 (A) (A) (A) (A) (A) (A) (A) (A) (A) (A) (A) (A)
                 (A) (A) (A) (A) (A) (A) (A) (A) (A) (A) (A) (A)
                 (A) (A) (A) (A) (A) (A) (A) (A) (A) (A) (A) (A)
                 (A) (A) (A) (A) (A) (A) (A) (A) (A) (A) (A) (A)
                 (A) (A) (A) (A) (A) (A) (A) (A) (A) (A) (A) (A)
                 (A) (A) (A) (A) (A) (A) (A) (A) (A) (A) (A) (A)
                 (A) (A) (A) (A) (A) (A) (A) (A) (A) (A) (A) (A)
                 (A) (A) (A) (A) (A) (A) (A) (A) (A) (A) (A) (A)
                 (A) (A) (A) (A) (A) (A) (A) (A) (A) (A) (A) (A)
                 (A) (A) (A) (A) (A) (A) (A) (A) (A) (A) (A) (A)
                 (A) (A) (A) (A) (A) (A) (A) (A) (A) (A) (A) (A)
                 (A) (A) (A) (A) (A) (A) (A) (A) (A) (A) (A) (A)
                 (A) (A) (A) (A) (A) (A) (A) (A) (A)
 The electronic state is 1-A.
 Alpha  occ. eigenvalues -- -101.54910-101.54665 -19.19467 -19.19408 -19.19054
 Alpha  occ. eigenvalues --  -19.18849 -14.44924 -14.44746 -14.44611 -14.44386
 Alpha  occ. eigenvalues --  -10.37016 -10.36802 -10.36720 -10.36560 -10.29301
 Alpha  occ. eigenvalues --  -10.29175 -10.29121 -10.29075 -10.28614 -10.28037
 Alpha  occ. eigenvalues --  -10.27895 -10.27852  -9.45723  -9.45486  -7.21661
 Alpha  occ. eigenvalues --   -7.21460  -7.21457  -7.21408  -7.21229  -7.21226
 Alpha  occ. eigenvalues --   -1.13204  -1.13074  -1.12978  -1.12645  -1.03816
 Alpha  occ. eigenvalues --   -1.03677  -1.03643  -1.03414  -0.82327  -0.81735
 Alpha  occ. eigenvalues --   -0.81563  -0.81333  -0.81252  -0.81168  -0.79324
 Alpha  occ. eigenvalues --   -0.79151  -0.79115  -0.78915  -0.65574  -0.65342
 Alpha  occ. eigenvalues --   -0.65165  -0.64955  -0.60219  -0.59821  -0.59610
 Alpha  occ. eigenvalues --   -0.59437  -0.58998  -0.56662  -0.56617  -0.55942
 Alpha  occ. eigenvalues --   -0.55861  -0.55568  -0.55067  -0.54787  -0.51970
 Alpha  occ. eigenvalues --   -0.49807  -0.49686  -0.49486  -0.48636  -0.48127
 Alpha  occ. eigenvalues --   -0.48008  -0.47857  -0.47670  -0.47483  -0.47324
 Alpha  occ. eigenvalues --   -0.47149  -0.47003  -0.46651  -0.46334  -0.45821
 Alpha  occ. eigenvalues --   -0.45665  -0.45311  -0.45147  -0.44738  -0.44440
 Alpha  occ. eigenvalues --   -0.36980  -0.36122  -0.35614  -0.35585  -0.34966
 Alpha  occ. eigenvalues --   -0.34404  -0.33893  -0.33406  -0.33049  -0.32866
 Alpha  occ. eigenvalues --   -0.32730  -0.32392  -0.31943  -0.28958
 Alpha virt. eigenvalues --    0.02172   0.03324   0.03873   0.04316   0.05554
 Alpha virt. eigenvalues --    0.05662   0.06843   0.07277   0.07673   0.07865
 Alpha virt. eigenvalues --    0.09216   0.10233   0.10755   0.11166   0.11353
 Alpha virt. eigenvalues --    0.11991   0.12547   0.12793   0.13624   0.14190
 Alpha virt. eigenvalues --    0.14319   0.14615   0.15345   0.15430   0.15866
 Alpha virt. eigenvalues --    0.16505   0.17022   0.17278   0.17479   0.17717
 Alpha virt. eigenvalues --    0.17907   0.18287   0.19020   0.19311   0.19894
 Alpha virt. eigenvalues --    0.20342   0.20953   0.21426   0.22353   0.22800
 Alpha virt. eigenvalues --    0.23383   0.23861   0.24491   0.24860   0.25211
 Alpha virt. eigenvalues --    0.25375   0.25748   0.26184   0.26840   0.27877
 Alpha virt. eigenvalues --    0.28053   0.28134   0.29526   0.30079   0.31108
 Alpha virt. eigenvalues --    0.31573   0.31683   0.32430   0.33275   0.33588
 Alpha virt. eigenvalues --    0.34528   0.35111   0.35292   0.35893   0.36084
 Alpha virt. eigenvalues --    0.36547   0.37456   0.37707   0.37773   0.38145
 Alpha virt. eigenvalues --    0.38556   0.38924   0.39212   0.40027   0.40969
 Alpha virt. eigenvalues --    0.41312   0.41596   0.41846   0.42205   0.42719
 Alpha virt. eigenvalues --    0.43132   0.43303   0.44277   0.44998   0.45229
 Alpha virt. eigenvalues --    0.45743   0.46365   0.46863   0.47217   0.47395
 Alpha virt. eigenvalues --    0.47838   0.48306   0.48805   0.48947   0.49078
 Alpha virt. eigenvalues --    0.49357   0.49614   0.49977   0.50132   0.50381
 Alpha virt. eigenvalues --    0.50649   0.51083   0.51343   0.51355   0.51651
 Alpha virt. eigenvalues --    0.51717   0.51807   0.52230   0.52413   0.52889
 Alpha virt. eigenvalues --    0.53046   0.53479   0.53670   0.53944   0.54174
 Alpha virt. eigenvalues --    0.54555   0.55090   0.55464   0.55678   0.55964
 Alpha virt. eigenvalues --    0.56449   0.56623   0.56675   0.57382   0.57591
 Alpha virt. eigenvalues --    0.58070   0.58168   0.58793   0.58902   0.59283
 Alpha virt. eigenvalues --    0.59556   0.60116   0.60528   0.60846   0.61470
 Alpha virt. eigenvalues --    0.61942   0.62625   0.62930   0.63614   0.63856
 Alpha virt. eigenvalues --    0.64806   0.65677   0.66301   0.66482   0.67193
 Alpha virt. eigenvalues --    0.68488   0.68652   0.69472   0.70070   0.70800
 Alpha virt. eigenvalues --    0.71035   0.71134   0.71756   0.72681   0.73199
 Alpha virt. eigenvalues --    0.73584   0.74055   0.75875   0.76365   0.76916
 Alpha virt. eigenvalues --    0.77024   0.77915   0.78993   0.79281   0.80281
 Alpha virt. eigenvalues --    0.80529   0.81133   0.82010   0.82268   0.83363
 Alpha virt. eigenvalues --    0.84014   0.84422   0.85491   0.86079   0.86158
 Alpha virt. eigenvalues --    0.86941   0.87764   0.88309   0.89564   0.90213
 Alpha virt. eigenvalues --    0.90343   0.90484   0.91567   0.92116   0.92718
 Alpha virt. eigenvalues --    0.92967   0.93264   0.93936   0.94280   0.95226
 Alpha virt. eigenvalues --    0.95619   0.96214   0.96639   0.97015   0.97120
 Alpha virt. eigenvalues --    0.97643   0.98464   0.99025   0.99253   0.99484
 Alpha virt. eigenvalues --    1.00363   1.00776   1.01226   1.01453   1.02098
 Alpha virt. eigenvalues --    1.02420   1.02899   1.03358   1.03812   1.03970
 Alpha virt. eigenvalues --    1.04198   1.04973   1.05236   1.05352   1.06106
 Alpha virt. eigenvalues --    1.06540   1.06686   1.06904   1.07663   1.07856
 Alpha virt. eigenvalues --    1.08895   1.09528   1.10459   1.11193   1.11270
 Alpha virt. eigenvalues --    1.11981   1.12359   1.13102   1.13700   1.13896
 Alpha virt. eigenvalues --    1.14203   1.14772   1.15186   1.15826   1.16063
 Alpha virt. eigenvalues --    1.16499   1.16786   1.17415   1.17627   1.18772
 Alpha virt. eigenvalues --    1.19031   1.20052   1.20689   1.21072   1.21591
 Alpha virt. eigenvalues --    1.22191   1.22808   1.23394   1.24278   1.24894
 Alpha virt. eigenvalues --    1.25158   1.25723   1.26034   1.26519   1.27167
 Alpha virt. eigenvalues --    1.27253   1.27920   1.28494   1.28849   1.29175
 Alpha virt. eigenvalues --    1.29403   1.30144   1.30436   1.30844   1.31307
 Alpha virt. eigenvalues --    1.31527   1.32166   1.32834   1.32962   1.33232
 Alpha virt. eigenvalues --    1.33841   1.35136   1.35190   1.36098   1.36653
 Alpha virt. eigenvalues --    1.37206   1.37611   1.37958   1.38372   1.38496
 Alpha virt. eigenvalues --    1.39007   1.39122   1.39642   1.40872   1.40908
 Alpha virt. eigenvalues --    1.42032   1.42480   1.43612   1.44031   1.44605
 Alpha virt. eigenvalues --    1.45350   1.45639   1.46138   1.46662   1.47000
 Alpha virt. eigenvalues --    1.47649   1.47994   1.48591   1.49519   1.50069
 Alpha virt. eigenvalues --    1.50245   1.50606   1.52358   1.53529   1.54509
 Alpha virt. eigenvalues --    1.54754   1.55202   1.56093   1.56397   1.56634
 Alpha virt. eigenvalues --    1.57440   1.58254   1.58575   1.59445   1.60224
 Alpha virt. eigenvalues --    1.60895   1.61745   1.62846   1.63457   1.64692
 Alpha virt. eigenvalues --    1.67038   1.67646   1.69205   1.71770   1.72238
 Alpha virt. eigenvalues --    1.73356   1.75616   1.76254   1.76944   1.77069
 Alpha virt. eigenvalues --    1.79256   1.80337   1.81209   1.81651   1.83052
 Alpha virt. eigenvalues --    1.83729   1.85477   1.85794   1.86509   1.87956
 Alpha virt. eigenvalues --    1.88543   1.89552   1.90395   1.91240   1.95495
 Alpha virt. eigenvalues --    1.96390   1.96647   1.97357   2.00577   2.01127
 Alpha virt. eigenvalues --    2.01782   2.02515   2.03628   2.04599   2.05275
 Alpha virt. eigenvalues --    2.05945   2.06281   2.07054   2.08340   2.10328
 Alpha virt. eigenvalues --    2.10560   2.11412   2.11839   2.12810   2.13533
 Alpha virt. eigenvalues --    2.14201   2.15804   2.16573   2.16791   2.18584
 Alpha virt. eigenvalues --    2.18918   2.19716   2.19926   2.20235   2.20504
 Alpha virt. eigenvalues --    2.21001   2.21079   2.21296   2.21476   2.21571
 Alpha virt. eigenvalues --    2.21976   2.22033   2.23040   2.23273   2.23556
 Alpha virt. eigenvalues --    2.24251   2.24557   2.26260   2.27025   2.28066
 Alpha virt. eigenvalues --    2.29496   2.30997   2.31887   2.32191   2.33731
 Alpha virt. eigenvalues --    2.34435   2.34880   2.35781   2.36187   2.36595
 Alpha virt. eigenvalues --    2.38429   2.39161   2.40182   2.41104   2.41907
 Alpha virt. eigenvalues --    2.42691   2.43334   2.44795   2.45368   2.47038
 Alpha virt. eigenvalues --    2.47588   2.48322   2.48954   2.49300   2.49498
 Alpha virt. eigenvalues --    2.50016   2.50980   2.52544   2.53338   2.54806
 Alpha virt. eigenvalues --    2.56752   2.58332   2.59422   2.60141   2.61613
 Alpha virt. eigenvalues --    2.62568   2.63749   2.64365   2.65374   2.67552
 Alpha virt. eigenvalues --    2.68409   2.68705   2.68927   2.69422   2.69545
 Alpha virt. eigenvalues --    2.70272   2.70761   2.71000   2.71385   2.71502
 Alpha virt. eigenvalues --    2.72295   2.72642   2.72907   2.73476   2.73594
 Alpha virt. eigenvalues --    2.74767   2.75366   2.75680   2.77975   2.78625
 Alpha virt. eigenvalues --    2.78931   2.80095   2.81358   2.81726   2.82642
 Alpha virt. eigenvalues --    2.83109   2.83770   2.83953   2.84136   2.84558
 Alpha virt. eigenvalues --    2.84770   2.85287   2.85653   2.85753   2.86242
 Alpha virt. eigenvalues --    2.86507   2.86961   2.87420   2.87987   2.88535
 Alpha virt. eigenvalues --    2.88782   2.89588   2.89951   2.90727   2.91128
 Alpha virt. eigenvalues --    2.92110   2.92245   2.92653   2.93156   2.93940
 Alpha virt. eigenvalues --    2.94396   2.94492   2.94865   2.95030   2.95763
 Alpha virt. eigenvalues --    2.96142   2.96441   2.96796   2.97429   2.97887
 Alpha virt. eigenvalues --    2.98561   2.99357   3.00078   3.00553   3.00993
 Alpha virt. eigenvalues --    3.01662   3.02106   3.03595   3.04390   3.04477
 Alpha virt. eigenvalues --    3.05241   3.05811   3.06644   3.07233   3.07523
 Alpha virt. eigenvalues --    3.07693   3.07948   3.08654   3.09033   3.09840
 Alpha virt. eigenvalues --    3.10728   3.11113   3.11367   3.12074   3.12292
 Alpha virt. eigenvalues --    3.12680   3.12849   3.12942   3.13764   3.14016
 Alpha virt. eigenvalues --    3.14600   3.15258   3.16029   3.16477   3.16813
 Alpha virt. eigenvalues --    3.17344   3.17905   3.18167   3.18614   3.18983
 Alpha virt. eigenvalues --    3.19969   3.20061   3.20827   3.21810   3.22100
 Alpha virt. eigenvalues --    3.23609   3.24061   3.25080   3.25981   3.26900
 Alpha virt. eigenvalues --    3.27731   3.28488   3.29253   3.30294   3.30573
 Alpha virt. eigenvalues --    3.30891   3.31298   3.32035   3.32566   3.32915
 Alpha virt. eigenvalues --    3.33390   3.33787   3.34362   3.34937   3.35279
 Alpha virt. eigenvalues --    3.35889   3.36225   3.37254   3.37532   3.37640
 Alpha virt. eigenvalues --    3.38049   3.38322   3.38716   3.39054   3.39231
 Alpha virt. eigenvalues --    3.39350   3.39769   3.40067   3.40259   3.40871
 Alpha virt. eigenvalues --    3.41424   3.41923   3.42074   3.42708   3.43838
 Alpha virt. eigenvalues --    3.44077   3.44420   3.45037   3.45740   3.46422
 Alpha virt. eigenvalues --    3.47536   3.47766   3.48156   3.48436   3.48659
 Alpha virt. eigenvalues --    3.49292   3.49776   3.50475   3.50632   3.51149
 Alpha virt. eigenvalues --    3.51301   3.51669   3.52049   3.52290   3.52670
 Alpha virt. eigenvalues --    3.53557   3.54007   3.54913   3.55208   3.55491
 Alpha virt. eigenvalues --    3.55741   3.56228   3.56752   3.57945   3.58313
 Alpha virt. eigenvalues --    3.59303   3.59409   3.59920   3.60661   3.61175
 Alpha virt. eigenvalues --    3.62944   3.64756   3.65844   3.66219   3.66883
 Alpha virt. eigenvalues --    3.67443   3.68748   3.69412   3.70294   3.71111
 Alpha virt. eigenvalues --    3.71877   3.72175   3.74657   3.75208   3.75769
 Alpha virt. eigenvalues --    3.76860   3.77101   3.78262   3.78729   3.79078
 Alpha virt. eigenvalues --    3.79275   3.79900   3.79999   3.80121   3.80977
 Alpha virt. eigenvalues --    3.81263   3.81774   3.82130   3.82972   3.85689
 Alpha virt. eigenvalues --    3.85974   3.86788   3.87134   3.88183   3.88594
 Alpha virt. eigenvalues --    3.89248   3.92256   3.93175   3.93661   3.94041
 Alpha virt. eigenvalues --    3.94356   3.95187   3.96107   3.96468   3.96848
 Alpha virt. eigenvalues --    3.97399   3.97813   3.98343   3.99452   3.99729
 Alpha virt. eigenvalues --    4.00250   4.01219   4.02001   4.02256   4.02763
 Alpha virt. eigenvalues --    4.03184   4.04233   4.04406   4.04793   4.05565
 Alpha virt. eigenvalues --    4.05952   4.06854   4.07021   4.07791   4.08259
 Alpha virt. eigenvalues --    4.08565   4.08951   4.09238   4.10149   4.11053
 Alpha virt. eigenvalues --    4.11132   4.11478   4.12021   4.12475   4.12524
 Alpha virt. eigenvalues --    4.13190   4.13775   4.13898   4.15087   4.15477
 Alpha virt. eigenvalues --    4.16181   4.16623   4.16825   4.17524   4.18171
 Alpha virt. eigenvalues --    4.18528   4.18830   4.19885   4.20783   4.20992
 Alpha virt. eigenvalues --    4.21519   4.24084   4.24981   4.25930   4.26809
 Alpha virt. eigenvalues --    4.26843   4.27153   4.27329   4.27541   4.28009
 Alpha virt. eigenvalues --    4.28619   4.28874   4.29157   4.29826   4.30248
 Alpha virt. eigenvalues --    4.30498   4.31101   4.31563   4.32787   4.33036
 Alpha virt. eigenvalues --    4.33585   4.35386   4.36396   4.36856   4.38745
 Alpha virt. eigenvalues --    4.39423   4.40865   4.42954   4.44979   4.46018
 Alpha virt. eigenvalues --    4.49229   4.49471   4.50275   4.50476   4.51825
 Alpha virt. eigenvalues --    4.52182   4.53441   4.53803   4.54209   4.55312
 Alpha virt. eigenvalues --    4.56072   4.58168   4.60300   4.60607   4.61418
 Alpha virt. eigenvalues --    4.62073   4.62492   4.63219   4.65273   4.67408
 Alpha virt. eigenvalues --    4.68103   4.68828   4.68988   4.69980   4.70874
 Alpha virt. eigenvalues --    4.71101   4.71755   4.72103   4.72491   4.72951
 Alpha virt. eigenvalues --    4.73409   4.74674   4.76824   4.76951   4.77225
 Alpha virt. eigenvalues --    4.78117   4.81571   4.83850   4.84142   4.85041
 Alpha virt. eigenvalues --    4.86229   4.86555   4.87128   4.87623   4.88326
 Alpha virt. eigenvalues --    4.88781   4.89638   4.90032   4.91325   4.92824
 Alpha virt. eigenvalues --    4.94294   4.94562   4.95255   4.97011   5.00163
 Alpha virt. eigenvalues --    5.00538   5.00990   5.01162   5.01890   5.02129
 Alpha virt. eigenvalues --    5.02789   5.03248   5.03611   5.03757   5.04040
 Alpha virt. eigenvalues --    5.04251   5.04489   5.05041   5.05624   5.05842
 Alpha virt. eigenvalues --    5.06463   5.06549   5.08741   5.09145   5.15628
 Alpha virt. eigenvalues --    5.16134   5.16493   5.16761   5.17826   5.18888
 Alpha virt. eigenvalues --    5.19124   5.19264   5.20142   5.20315   5.20480
 Alpha virt. eigenvalues --    5.21070   5.21228   5.21565   5.21940   5.22145
 Alpha virt. eigenvalues --    5.22868   5.23060   5.23214   5.23552   5.23763
 Alpha virt. eigenvalues --    5.24352   5.24805   5.27361   5.27440   5.28164
 Alpha virt. eigenvalues --    5.29313   5.29549   5.31092   5.31441   5.31475
 Alpha virt. eigenvalues --    5.31703   5.32728   5.33130   5.33287   5.34383
 Alpha virt. eigenvalues --    5.34735   5.36780   5.36915   5.37923   5.38067
 Alpha virt. eigenvalues --    5.39288   5.39816   5.40075   5.40661   5.40716
 Alpha virt. eigenvalues --    5.41347   5.41496   5.41835   5.42371   5.42627
 Alpha virt. eigenvalues --    5.43081   5.43575   5.44254   5.44979   5.45628
 Alpha virt. eigenvalues --    5.46714   5.46922   5.47149   5.47826   5.48642
 Alpha virt. eigenvalues --    5.48827   5.50272   5.51601   5.60530   5.62082
 Alpha virt. eigenvalues --    5.65194   5.65474   5.69935   5.70384   5.71698
 Alpha virt. eigenvalues --    5.72523   5.74941   5.75967   5.76587   5.77063
 Alpha virt. eigenvalues --    5.77363   5.77607   5.78467   5.78924   5.79964
 Alpha virt. eigenvalues --    5.81468   5.81857   5.82420   5.87050   5.87777
 Alpha virt. eigenvalues --    5.89636   5.90036   5.90180   5.90790   5.92324
 Alpha virt. eigenvalues --    5.93140   5.94591   5.95061   5.95631   5.95857
 Alpha virt. eigenvalues --    5.96500   5.97584   5.99537   6.01667   6.02409
 Alpha virt. eigenvalues --    6.03699   6.04592   6.05749   6.05973   6.06710
 Alpha virt. eigenvalues --    6.08469   6.08907   6.11657   6.12091   6.14923
 Alpha virt. eigenvalues --    6.17144   6.18209   6.20020   6.20416   6.20509
 Alpha virt. eigenvalues --    6.31481   6.33675   6.35232   6.37361   6.43892
 Alpha virt. eigenvalues --    6.44404   6.44778   6.46183   6.53735   6.54899
 Alpha virt. eigenvalues --    6.57199   6.59074   6.88664   6.89621   6.90730
 Alpha virt. eigenvalues --    6.92442   6.93938   6.95102   6.98338   6.98812
 Alpha virt. eigenvalues --    7.14310   7.16085   7.17298   7.17637   7.19466
 Alpha virt. eigenvalues --    7.20140   7.21560   7.22735   9.71565   9.80970
 Alpha virt. eigenvalues --    9.97171  10.14799  10.49312  11.36270  11.37973
 Alpha virt. eigenvalues --   11.45579  11.48776  12.99639  13.04859  13.13874
 Alpha virt. eigenvalues --   13.19114  13.30928  13.33426  13.37547  13.39665
 Alpha virt. eigenvalues --   13.49844  13.72547  13.79156  13.83918
          Condensed to atoms (all electrons):
 Mulliken charges:
               1
     1  Pb   1.261911
     2  Cl  -0.747059
     3  Cl  -0.751829
     4  O   -0.453837
     5  C    0.153048
     6  H    0.112829
     7  N   -0.018707
     8  C   -0.217606
     9  C   -0.205829
    10  H    0.115658
    11  H    0.109837
    12  H    0.124185
    13  H    0.115568
    14  H    0.123573
    15  H    0.104400
    16  O   -0.449246
    17  C    0.143654
    18  H    0.108744
    19  N   -0.020865
    20  C   -0.230707
    21  C   -0.200772
    22  H    0.115366
    23  H    0.113977
    24  H    0.119814
    25  H    0.112447
    26  H    0.120238
    27  H    0.123345
    28  O   -0.508837
    29  C    0.173920
    30  H    0.109364
    31  N    0.008850
    32  C   -0.199809
    33  C   -0.166081
    34  H    0.108544
    35  H    0.107637
    36  H    0.108263
    37  H    0.114178
    38  H    0.109272
    39  H    0.106974
    40  O   -0.484639
    41  C    0.146565
    42  H    0.114602
    43  N    0.003998
    44  C   -0.251723
    45  C   -0.175761
    46  H    0.108580
    47  H    0.107632
    48  H    0.116354
    49  H    0.128440
    50  H    0.117995
    51  H    0.113546
 Sum of Mulliken charges =  -0.00000
 Mulliken charges with hydrogens summed into heavy atoms:
               1
     1  Pb   1.261911
     2  Cl  -0.747059
     3  Cl  -0.751829
     4  O   -0.453837
     5  C    0.265877
     7  N   -0.018707
     8  C    0.125934
     9  C    0.143851
    16  O   -0.449246
    17  C    0.252398
    19  N   -0.020865
    20  C    0.125323
    21  C    0.148386
    28  O   -0.508837
    29  C    0.283284
    31  N    0.008850
    32  C    0.130615
    33  C    0.158362
    40  O   -0.484639
    41  C    0.261167
    43  N    0.003998
    44  C    0.108258
    45  C    0.156805
 Electronic spatial extent (au):  <R**2>=          10765.7860
 Charge=             -0.0000 electrons
 Dipole moment (field-independent basis, Debye):
    X=            -11.8407    Y=             20.6996    Z=             -1.7145  Tot=             23.9085
 Quadrupole moment (field-independent basis, Debye-Ang):
   XX=            -87.9787   YY=           -151.2375   ZZ=           -178.1287
   XY=             17.9426   XZ=              9.4875   YZ=              5.3979
 Traceless Quadrupole moment (field-independent basis, Debye-Ang):
   XX=             51.1363   YY=            -12.1226   ZZ=            -39.0137
   XY=             17.9426   XZ=              9.4875   YZ=              5.3979
 Octapole moment (field-independent basis, Debye-Ang**2):
  XXX=             48.9720  YYY=            140.9119  ZZZ=             -8.6321  XYY=           -108.9761
  XXY=             -4.0001  XXZ=             -5.4833  XZZ=            -34.4493  YZZ=             39.5598
  YYZ=             -4.2802  XYZ=            -12.6976
 Hexadecapole moment (field-independent basis, Debye-Ang**3):
 XXXX=          -5136.8936 YYYY=          -4681.6392 ZZZZ=          -2242.9211 XXXY=            354.5630
 XXXZ=            107.4122 YYYX=            -77.9967 YYYZ=            138.3961 ZZZX=             68.9758
 ZZZY=             65.9829 XXYY=          -1755.5359 XXZZ=          -1425.7288 YYZZ=          -1195.7580
 XXYZ=            -61.9653 YYXZ=              3.5806 ZZXY=             23.6297
 N-N= 2.367207067771D+03 E-N=-9.251923204127D+03  KE= 1.905908834665D+03
 Unable to Open any file for archive entry.
 1\1\GINC-MPCL003\SP\RCAM-B3LYP TD-FC\Gen\C12H28Cl2N4O4Pb1\EDBA4025\17-
 Apr-2021\0\\# cam-b3lyp/gen pseudo=read TD=NStates=10 Geom=Check Guess
 =Read empiricaldispersion=gd3bj SCRF=(Solvent=n,n-DiMethylFormamide)\\
 PbCl2_DMF\\0,1\Pb,0,-0.0786627044,-0.8982044173,-0.3948447678\Cl,0,0.8
 531673106,-2.3688627534,-2.4091052119\Cl,0,-0.9776656592,-2.9908197171
 ,1.0380811099\O,0,1.1118409755,1.3797166437,-1.5203227701\C,0,1.023874
 1383,2.5944183526,-1.2510587852\H,0,1.9180307425,3.207601248,-0.976052
 7891\N,0,-0.1178971009,3.322853522,-1.2603001201\C,0,-1.3920530804,2.7
 128727791,-1.6063482597\C,0,-0.1158879732,4.734368748,-0.9129939492\H,
 0,0.9167993569,5.0584472597,-0.6866879371\H,0,-0.7536331907,4.91956133
 04,-0.0232694588\H,0,-0.507946938,5.3431243431,-1.7534762487\H,0,-2.07
 0194008,2.6967993403,-0.7279306434\H,0,-1.8798204635,3.2868426282,-2.4
 199606016\H,0,-1.2061440146,1.6780879618,-1.9410404654\O,0,-0.60881435
 33,1.1266984496,1.545578106\C,0,-0.3034472174,2.2795724662,1.908330994
 1\H,0,-1.0766088478,3.0719373386,2.0744217113\N,0,0.951587933,2.731052
 3118,2.1469184561\C,0,2.1087037891,1.857706738,2.0154103816\C,0,1.1881
 639176,4.0926466748,2.5991905196\H,0,0.2269825617,4.6355973124,2.66441
 8729\H,0,1.8555385924,4.6267289587,1.8912388692\H,0,1.6697792017,4.093
 4347399,3.5990700342\H,0,2.8463630101,2.307715845,1.3195230017\H,0,2.6
 007486804,1.7230036654,3.0014529503\H,0,1.7889332673,0.8778287781,1.62
 35898573\O,0,2.1544379028,-1.1894239198,0.7346526294\C,0,3.1272699715,
 -1.9178404737,0.4140006872\H,0,3.3376029151,-2.8754882702,0.9480316799
 \N,0,4.0164377827,-1.6507613419,-0.5574045592\C,0,3.9096073907,-0.4563
 255467,-1.3849140828\C,0,5.1060383403,-2.5703433016,-0.8494140481\H,0,
 5.0771077061,-3.418991272,-0.1418165134\H,0,6.0817298086,-2.0517655946
 ,-0.7548388135\H,0,5.0124392668,-2.9584358232,-1.8843120681\H,0,4.8259
 531081,0.1593217985,-1.27364451\H,0,3.8045699689,-0.7515446025,-2.4480
 455419\H,0,3.0203370413,0.1257579607,-1.0865348604\O,0,-2.3393082254,-
 0.7013472777,-1.7013698972\C,0,-3.391180593,-0.0256031602,-1.611469225
 6\H,0,-3.8830962183,0.4023730452,-2.5190921366\N,0,-4.0489332803,0.262
 9049449,-0.4718509295\C,0,-3.5710480768,-0.2353940104,0.8152905168\C,0
 ,-5.2059744846,1.1467693001,-0.476818514\H,0,-5.441076296,1.4420885394
 ,-1.515966482\H,0,-4.9960932879,2.0614071121,0.115569302\H,0,-6.085930
 8656,0.6359524379,-0.0363506275\H,0,-2.8476091078,0.4707507757,1.27545
 32608\H,0,-4.4375885689,-0.3722818894,1.4887852977\H,0,-3.0615901238,-
 1.2070599779,0.6702167238\\Version=ES64L-G16RevC.01\State=1-A\HF=-1918
 .1344372\RMSD=5.673e-09\PG=C01 [X(C12H28Cl2N4O4Pb1)]\\@
 The archive entry for this job was punched.


 THESE ARE THE TIMES THAT TRY MENS SOULS.
 THE SUMMER SOLDIER AND THE SUNSHINE PATRIOT WILL IN THIS CRISIS,
 SHRINK FROM THE SERVICE OF HIS COUNTRY.  BUT HE THAT STANDS NOW,
 DESERVES THE LOVE AND THANKS OF MAN AND WOMAN.
 TYRANNY, LIKE HELL, IS NOT EASILY CONQUERED,
 YET WE HAVE THIS CONSOLATION WITH US,
 THAT THE HARDER THE CONFLICT, THE MORE GLORIOUS THE TRIUMPH.
 WHAT WE OBTAIN TOO CHEAP, WE ESTEEM TOO LIGHTLY, 
 'TIS DEARNESS ONLY THAT GIVES EVERYTHING ITS VALUE.

                                              -- TOM PAINE
 Job cpu time:       0 days 19 hours  8 minutes  1.7 seconds.
 Elapsed time:       0 days  3 hours 49 minutes 39.0 seconds.
 File lengths (MBytes):  RWF=   5068 Int=      0 D2E=      0 Chk=    536 Scr=      1
 Normal termination of Gaussian 16 at Sat Apr 17 14:20:13 2021.
