 Entering Gaussian System, Link 0=g16
 Input=02-PbCl2_dmso_23596166.com
 Output=02-PbCl2_dmso_23596166.log
 Initial command:
 /cm/shared/uniol/software/gaussian/g16.c01/g16/l1.exe "/scratch/23596166_edba4025/Gau-4262.inp" -scrdir="/scratch/23596166_edba4025/"
 Entering Link 1 = /cm/shared/uniol/software/gaussian/g16.c01/g16/l1.exe PID=      4263.
  
 Copyright (c) 1988-2019, Gaussian, Inc.  All Rights Reserved.
  
 This is part of the Gaussian(R) 16 program.  It is based on
 the Gaussian(R) 09 system (copyright 2009, Gaussian, Inc.),
 the Gaussian(R) 03 system (copyright 2003, Gaussian, Inc.),
 the Gaussian(R) 98 system (copyright 1998, Gaussian, Inc.),
 the Gaussian(R) 94 system (copyright 1995, Gaussian, Inc.),
 the Gaussian 92(TM) system (copyright 1992, Gaussian, Inc.),
 the Gaussian 90(TM) system (copyright 1990, Gaussian, Inc.),
 the Gaussian 88(TM) system (copyright 1988, Gaussian, Inc.),
 the Gaussian 86(TM) system (copyright 1986, Carnegie Mellon
 University), and the Gaussian 82(TM) system (copyright 1983,
 Carnegie Mellon University). Gaussian is a federally registered
 trademark of Gaussian, Inc.
  
 This software contains proprietary and confidential information,
 including trade secrets, belonging to Gaussian, Inc.
  
 This software is provided under written license and may be
 used, copied, transmitted, or stored only in accord with that
 written license.
  
 The following legend is applicable only to US Government
 contracts under FAR:
  
                    RESTRICTED RIGHTS LEGEND
  
 Use, reproduction and disclosure by the US Government is
 subject to restrictions as set forth in subparagraphs (a)
 and (c) of the Commercial Computer Software - Restricted
 Rights clause in FAR 52.227-19.
  
 Gaussian, Inc.
 340 Quinnipiac St., Bldg. 40, Wallingford CT 06492
  
  
 ---------------------------------------------------------------
 Warning -- This program may not be used in any manner that
 competes with the business of Gaussian, Inc. or will provide
 assistance to any competitor of Gaussian, Inc.  The licensee
 of this program is prohibited from giving any competitor of
 Gaussian, Inc. access to this program.  By using this program,
 the user acknowledges that Gaussian, Inc. is engaged in the
 business of creating and licensing software in the field of
 computational chemistry and represents and warrants to the
 licensee that it is not a competitor of Gaussian, Inc. and that
 it will not use this program in any manner prohibited above.
 ---------------------------------------------------------------
  

 Cite this work as:
 Gaussian 16, Revision C.01,
 M. J. Frisch, G. W. Trucks, H. B. Schlegel, G. E. Scuseria, 
 M. A. Robb, J. R. Cheeseman, G. Scalmani, V. Barone, 
 G. A. Petersson, H. Nakatsuji, X. Li, M. Caricato, A. V. Marenich, 
 J. Bloino, B. G. Janesko, R. Gomperts, B. Mennucci, H. P. Hratchian, 
 J. V. Ortiz, A. F. Izmaylov, J. L. Sonnenberg, D. Williams-Young, 
 F. Ding, F. Lipparini, F. Egidi, J. Goings, B. Peng, A. Petrone, 
 T. Henderson, D. Ranasinghe, V. G. Zakrzewski, J. Gao, N. Rega, 
 G. Zheng, W. Liang, M. Hada, M. Ehara, K. Toyota, R. Fukuda, 
 J. Hasegawa, M. Ishida, T. Nakajima, Y. Honda, O. Kitao, H. Nakai, 
 T. Vreven, K. Throssell, J. A. Montgomery, Jr., J. E. Peralta, 
 F. Ogliaro, M. J. Bearpark, J. J. Heyd, E. N. Brothers, K. N. Kudin, 
 V. N. Staroverov, T. A. Keith, R. Kobayashi, J. Normand, 
 K. Raghavachari, A. P. Rendell, J. C. Burant, S. S. Iyengar, 
 J. Tomasi, M. Cossi, J. M. Millam, M. Klene, C. Adamo, R. Cammi, 
 J. W. Ochterski, R. L. Martin, K. Morokuma, O. Farkas, 
 J. B. Foresman, and D. J. Fox, Gaussian, Inc., Wallingford CT, 2019.
 
 ******************************************
 Gaussian 16:  ES64L-G16RevC.01  3-Jul-2019
                17-Apr-2021 
 ******************************************
 %oldChk=01-PbCl2_dmso
 %chk=02-PbCl2_dmso
 %mem=16GB
 %NProcShared=5
 Will use up to    5 processors via shared memory.
 Copying data from "01-PbCl2_dmso.chk" to current chk file "02-PbCl2_dmso.chk"
 IOpt=  2 FromEx=T IUOpen= 4 IOptOp= 5 NList=   0 IFRang= 0 IUIn= 4 IUOut= 2.
 ----------------------------------------------------------------------
 # cam-b3lyp/gen pseudo=read TD=NStates=10 Geom=Check Guess=Read empiri
 caldispersion=gd3bj SCRF=(Solvent=DMSO)
 ----------------------------------------------------------------------
 1/29=2,38=1,172=1/1;
 2/12=2,40=1/2;
 3/5=7,11=9,14=-4,16=1,17=8,25=1,30=1,70=2201,72=21,74=-40,116=-2,124=41/1,2,3,8;
 4/5=1/1;
 5/5=2,38=6,53=21/2;
 8/6=1,10=1,108=10/1;
 9/41=10,42=1,70=2/14;
 6/7=2,8=2,9=2,10=2/1;
 99/5=1,9=1/99;
 ----------
 PbCl2_dmso
 ----------
 Structure from the checkpoint file:  "02-PbCl2_dmso.chk"
 Charge =  0 Multiplicity = 1
 Redundant internal coordinates found in file.  (old form).
 Pb,0,0.1285156513,-0.3332299865,-0.2922367753
 Cl,0,1.1680533109,2.1269894046,-1.6474598836
 Cl,0,0.3285202764,-2.2196803156,-2.3601520823
 O,0,-0.6203199831,1.1869561291,1.6387230589
 S,0,0.2519741384,2.2221607315,2.4488557231
 C,0,0.1005330909,3.816316515,1.5623162975
 C,0,1.9926444334,1.8863549299,1.9967072639
 H,0,-0.9514314562,4.1401552138,1.6618880884
 H,0,2.1872000167,0.8278830412,2.2507639164
 H,0,0.7727961901,4.5443816891,2.05607013
 H,0,2.6398411556,2.5678450347,2.5813146971
 H,0,0.3816478555,3.6464314442,0.5036382648
 H,0,2.0990680703,2.0438277173,0.9041579966
 O,0,-1.0576539811,-1.8400850784,1.1527077028
 S,0,-2.4458233115,-1.3362031281,1.7408776926
 C,0,-3.67298285,-2.3913902904,0.9044618471
 C,0,-2.4725241241,-2.1208345066,3.3845762727
 H,0,-3.669358544,-2.0383937151,-0.1425946957
 H,0,-1.6983363941,-1.6067548782,3.9826890128
 H,0,-4.6636530614,-2.2344895055,1.3725549106
 H,0,-3.4706827754,-1.9709625027,3.8384465027
 H,0,-3.3445502418,-3.4447904666,0.9810362551
 H,0,-2.2334441146,-3.1943988436,3.2681541557
 O,0,2.2815242067,-1.1766524799,0.8809269648
 S,0,3.685417352,-1.4656683991,0.2197632772
 C,0,4.8198078343,-0.1885561286,0.8788530695
 C,0,3.5925164155,-0.8358053528,-1.4941599886
 H,0,4.8807359827,-0.3520871951,1.9701488715
 H,0,2.8581592597,-1.4784159077,-2.0203800835
 H,0,5.8125770097,-0.3385608872,0.4130094725
 H,0,4.5991819889,-0.9224487366,-1.9461219465
 H,0,4.4155503942,0.8144569301,0.6476272524
 H,0,3.2339498679,0.2140844814,-1.473631057
 O,0,-2.2320551717,-0.150712116,-0.935955518
 S,0,-2.9700087659,1.0399779322,-1.6786421291
 C,0,-2.0712021258,1.23551773,-3.2553273118
 C,0,-2.3970875411,2.5647005785,-0.8575069425
 H,0,-2.2229302945,0.2944668144,-3.8144345323
 H,0,-2.6659905628,2.45258943,0.2080074094
 H,0,-2.5147946981,2.0889189275,-3.8030795514
 H,0,-2.9278181765,3.4205040253,-1.3168384792
 H,0,-0.9995722639,1.4080422197,-3.0248644798
 H,0,-1.2978840636,2.6379695005,-0.9826406492
 Recover connectivity data from disk.
                           ----------------------------
                           !    Current Parameters    !
                           ! (Angstroms and Degrees)  !
 --------------------------                            --------------------------
 ! Name  Definition              Value                                          !
 --------------------------------------------------------------------------------
 ! R1    R(1,3)                  2.8062                                         !
 ! R2    R(1,4)                  2.5691                                         !
 ! R3    R(1,14)                 2.4011                                         !
 ! R4    R(1,24)                 2.5929                                         !
 ! R5    R(1,34)                 2.4536                                         !
 ! R6    R(2,12)                 2.7485                                         !
 ! R7    R(2,13)                 2.7174                                         !
 ! R8    R(2,42)                 2.667                                          !
 ! R9    R(2,43)                 2.6046                                         !
 ! R10   R(4,5)                  1.5776                                         !
 ! R11   R(5,6)                  1.8304                                         !
 ! R12   R(5,7)                  1.8295                                         !
 ! R13   R(6,8)                  1.1052                                         !
 ! R14   R(6,10)                 1.1072                                         !
 ! R15   R(6,12)                 1.1085                                         !
 ! R16   R(7,9)                  1.1058                                         !
 ! R17   R(7,11)                 1.1068                                         !
 ! R18   R(7,13)                 1.109                                          !
 ! R19   R(9,24)                 2.4297                                         !
 ! R20   R(12,43)                2.459                                          !
 ! R21   R(14,15)                1.5896                                         !
 ! R22   R(15,16)                1.8218                                         !
 ! R23   R(15,17)                1.8216                                         !
 ! R24   R(16,18)                1.105                                          !
 ! R25   R(16,20)                1.1069                                         !
 ! R26   R(16,22)                1.1061                                         !
 ! R27   R(17,19)                1.1052                                         !
 ! R28   R(17,21)                1.1067                                         !
 ! R29   R(17,23)                1.106                                          !
 ! R30   R(24,25)                1.5785                                         !
 ! R31   R(25,26)                1.8309                                         !
 ! R32   R(25,27)                1.8284                                         !
 ! R33   R(26,28)                1.1052                                         !
 ! R34   R(26,30)                1.1068                                         !
 ! R35   R(26,32)                1.1059                                         !
 ! R36   R(27,29)                1.1087                                         !
 ! R37   R(27,31)                1.1069                                         !
 ! R38   R(27,33)                1.1096                                         !
 ! R39   R(34,35)                1.5855                                         !
 ! R40   R(35,36)                1.8254                                         !
 ! R41   R(35,37)                1.8241                                         !
 ! R42   R(36,38)                1.1051                                         !
 ! R43   R(36,40)                1.1068                                         !
 ! R44   R(36,42)                1.1096                                         !
 ! R45   R(37,39)                1.1046                                         !
 ! R46   R(37,41)                1.1068                                         !
 ! R47   R(37,43)                1.1087                                         !
 ! A1    A(3,1,14)              93.2555                                         !
 ! A2    A(3,1,24)              93.1854                                         !
 ! A3    A(3,1,34)              85.7128                                         !
 ! A4    A(4,1,14)              77.0                                            !
 ! A5    A(4,1,24)              95.4188                                         !
 ! A6    A(4,1,34)              82.689                                          !
 ! A7    A(14,1,24)             86.2035                                         !
 ! A8    A(14,1,34)             74.2932                                         !
 ! A9    A(24,1,34)            160.3526                                         !
 ! A10   A(12,2,13)             51.6884                                         !
 ! A11   A(12,2,42)            108.7044                                         !
 ! A12   A(13,2,42)            139.0397                                         !
 ! A13   A(13,2,43)             95.2038                                         !
 ! A14   A(42,2,43)             54.2123                                         !
 ! A15   A(1,4,5)              127.8122                                         !
 ! A16   A(4,5,6)              106.0832                                         !
 ! A17   A(4,5,7)              106.1836                                         !
 ! A18   A(6,5,7)               96.8274                                         !
 ! A19   A(5,6,8)              106.8773                                         !
 ! A20   A(5,6,10)             107.848                                          !
 ! A21   A(5,6,12)             107.9467                                         !
 ! A22   A(8,6,10)             110.1874                                         !
 ! A23   A(8,6,12)             111.861                                          !
 ! A24   A(10,6,12)            111.884                                          !
 ! A25   A(5,7,9)              106.6374                                         !
 ! A26   A(5,7,11)             108.2272                                         !
 ! A27   A(5,7,13)             107.9825                                         !
 ! A28   A(9,7,11)             111.4163                                         !
 ! A29   A(9,7,13)             110.2058                                         !
 ! A30   A(11,7,13)            112.137                                          !
 ! A31   A(7,9,24)             131.8366                                         !
 ! A32   A(2,12,6)             154.7934                                         !
 ! A33   A(6,12,43)            117.8338                                         !
 ! A34   A(2,13,7)             153.7086                                         !
 ! A35   A(1,14,15)            117.0738                                         !
 ! A36   A(14,15,16)           103.5777                                         !
 ! A37   A(14,15,17)           102.1306                                         !
 ! A38   A(16,15,17)            98.9124                                         !
 ! A39   A(15,16,18)           104.3481                                         !
 ! A40   A(15,16,20)           109.0639                                         !
 ! A41   A(15,16,22)           108.6521                                         !
 ! A42   A(18,16,20)           111.0012                                         !
 ! A43   A(18,16,22)           111.6467                                         !
 ! A44   A(20,16,22)           111.8075                                         !
 ! A45   A(15,17,19)           106.1241                                         !
 ! A46   A(15,17,21)           108.9628                                         !
 ! A47   A(15,17,23)           108.6603                                         !
 ! A48   A(19,17,21)           110.296                                          !
 ! A49   A(19,17,23)           110.9196                                         !
 ! A50   A(21,17,23)           111.69                                           !
 ! A51   A(1,24,9)              87.3916                                         !
 ! A52   A(1,24,25)            127.485                                          !
 ! A53   A(9,24,25)            114.9441                                         !
 ! A54   A(24,25,26)           105.8162                                         !
 ! A55   A(24,25,27)           106.5217                                         !
 ! A56   A(26,25,27)            97.3906                                         !
 ! A57   A(25,26,28)           106.6429                                         !
 ! A58   A(25,26,30)           108.0401                                         !
 ! A59   A(25,26,32)           109.3231                                         !
 ! A60   A(28,26,30)           110.2485                                         !
 ! A61   A(28,26,32)           111.1512                                         !
 ! A62   A(30,26,32)           111.2725                                         !
 ! A63   A(25,27,29)           106.1954                                         !
 ! A64   A(25,27,31)           108.0346                                         !
 ! A65   A(25,27,33)           108.9673                                         !
 ! A66   A(29,27,31)           111.2991                                         !
 ! A67   A(29,27,33)           110.0696                                         !
 ! A68   A(31,27,33)           112.0558                                         !
 ! A69   A(1,34,35)            128.7959                                         !
 ! A70   A(34,35,36)           104.825                                          !
 ! A71   A(34,35,37)           105.7046                                         !
 ! A72   A(36,35,37)            98.3161                                         !
 ! A73   A(35,36,38)           106.1518                                         !
 ! A74   A(35,36,40)           108.2226                                         !
 ! A75   A(35,36,42)           108.2275                                         !
 ! A76   A(38,36,40)           110.5591                                         !
 ! A77   A(38,36,42)           111.7207                                         !
 ! A78   A(40,36,42)           111.7128                                         !
 ! A79   A(35,37,39)           105.8386                                         !
 ! A80   A(35,37,41)           107.9921                                         !
 ! A81   A(35,37,43)           108.4104                                         !
 ! A82   A(39,37,41)           111.2263                                         !
 ! A83   A(39,37,43)           110.9109                                         !
 ! A84   A(41,37,43)           112.1761                                         !
 ! A85   A(2,42,36)            159.086                                          !
 ! A86   A(2,43,37)            162.6449                                         !
 ! A87   A(12,43,37)           129.4959                                         !
 ! A88   L(3,1,4,14,-1)        170.2555                                         !
 ! A89   L(3,1,4,14,-2)        189.4377                                         !
 ! D1    D(14,1,4,5)           131.8746                                         !
 ! D2    D(24,1,4,5)            47.0475                                         !
 ! D3    D(34,1,4,5)          -152.632                                          !
 ! D4    D(3,1,14,15)         -125.9689                                         !
 ! D5    D(4,1,14,15)           44.5935                                         !
 ! D6    D(24,1,14,15)         141.0502                                         !
 ! D7    D(34,1,14,15)         -41.3498                                         !
 ! D8    D(3,1,24,9)           167.9239                                         !
 ! D9    D(3,1,24,25)           48.1162                                         !
 ! D10   D(4,1,24,9)           -22.4795                                         !
 ! D11   D(4,1,24,25)         -142.2871                                         !
 ! D12   D(14,1,24,9)          -99.0203                                         !
 ! D13   D(14,1,24,25)         141.172                                          !
 ! D14   D(34,1,24,9)         -105.9063                                         !
 ! D15   D(34,1,24,25)         134.286                                          !
 ! D16   D(3,1,34,35)         -107.961                                          !
 ! D17   D(4,1,34,35)           78.9452                                         !
 ! D18   D(14,1,34,35)         157.4367                                         !
 ! D19   D(24,1,34,35)         164.5754                                         !
 ! D20   D(13,2,12,6)          -43.018                                          !
 ! D21   D(42,2,12,6)           95.4502                                         !
 ! D22   D(12,2,13,7)           61.805                                          !
 ! D23   D(42,2,13,7)          -11.5347                                         !
 ! D24   D(43,2,13,7)           26.2007                                         !
 ! D25   D(12,2,42,36)         -14.4761                                         !
 ! D26   D(13,2,42,36)          38.0497                                         !
 ! D27   D(43,2,42,36)         -10.6584                                         !
 ! D28   D(13,2,43,37)        -119.2379                                         !
 ! D29   D(42,2,43,37)          31.12                                           !
 ! D30   D(1,4,5,6)             90.4218                                         !
 ! D31   D(1,4,5,7)            -11.8472                                         !
 ! D32   D(4,5,6,8)             66.3948                                         !
 ! D33   D(4,5,6,10)          -175.1451                                         !
 ! D34   D(4,5,6,12)           -54.0881                                         !
 ! D35   D(7,5,6,8)            175.461                                          !
 ! D36   D(7,5,6,10)           -66.079                                          !
 ! D37   D(7,5,6,12)            54.9781                                         !
 ! D38   D(4,5,7,9)            -57.63                                           !
 ! D39   D(4,5,7,11)          -177.6057                                         !
 ! D40   D(4,5,7,13)            60.7938                                         !
 ! D41   D(6,5,7,9)           -166.6121                                         !
 ! D42   D(6,5,7,11)            73.4122                                         !
 ! D43   D(6,5,7,13)           -48.1882                                         !
 ! D44   D(5,6,12,2)             2.1631                                         !
 ! D45   D(5,6,12,43)           79.6053                                         !
 ! D46   D(8,6,12,2)          -115.1442                                         !
 ! D47   D(8,6,12,43)          -37.7021                                         !
 ! D48   D(10,6,12,2)          120.6714                                         !
 ! D49   D(10,6,12,43)        -161.8865                                         !
 ! D50   D(5,7,9,24)           101.0421                                         !
 ! D51   D(11,7,9,24)         -141.0617                                         !
 ! D52   D(13,7,9,24)          -15.9151                                         !
 ! D53   D(5,7,13,2)           -26.7184                                         !
 ! D54   D(9,7,13,2)            89.3994                                         !
 ! D55   D(11,7,13,2)         -145.8662                                         !
 ! D56   D(7,9,24,1)           -44.4781                                         !
 ! D57   D(7,9,24,25)           86.1137                                         !
 ! D58   D(6,12,43,37)          18.7806                                         !
 ! D59   D(1,14,15,16)         111.2078                                         !
 ! D60   D(1,14,15,17)        -146.3809                                         !
 ! D61   D(14,15,16,18)        -70.7555                                         !
 ! D62   D(14,15,16,20)        170.573                                          !
 ! D63   D(14,15,16,22)         48.4672                                         !
 ! D64   D(17,15,16,18)       -175.6297                                         !
 ! D65   D(17,15,16,20)         65.6988                                         !
 ! D66   D(17,15,16,22)        -56.4069                                         !
 ! D67   D(14,15,17,19)         69.9234                                         !
 ! D68   D(14,15,17,21)       -171.3177                                         !
 ! D69   D(14,15,17,23)        -49.4126                                         !
 ! D70   D(16,15,17,19)        175.9906                                         !
 ! D71   D(16,15,17,21)        -65.2504                                         !
 ! D72   D(16,15,17,23)         56.6547                                         !
 ! D73   D(1,24,25,26)         111.8851                                         !
 ! D74   D(1,24,25,27)           8.9716                                         !
 ! D75   D(9,24,25,26)           4.8203                                         !
 ! D76   D(9,24,25,27)         -98.0932                                         !
 ! D77   D(24,25,26,28)         63.2065                                         !
 ! D78   D(24,25,26,30)       -178.2869                                         !
 ! D79   D(24,25,26,32)        -57.0524                                         !
 ! D80   D(27,25,26,28)        172.7662                                         !
 ! D81   D(27,25,26,30)        -68.7272                                         !
 ! D82   D(27,25,26,32)         52.5073                                         !
 ! D83   D(24,25,27,29)        -66.7452                                         !
 ! D84   D(24,25,27,31)        173.7594                                         !
 ! D85   D(24,25,27,33)         51.7887                                         !
 ! D86   D(26,25,27,29)       -175.7197                                         !
 ! D87   D(26,25,27,31)         64.7849                                         !
 ! D88   D(26,25,27,33)        -57.1858                                         !
 ! D89   D(1,34,35,36)          57.9822                                         !
 ! D90   D(1,34,35,37)         -45.3053                                         !
 ! D91   D(34,35,36,38)         63.812                                          !
 ! D92   D(34,35,36,40)       -177.486                                          !
 ! D93   D(34,35,36,42)        -56.2556                                         !
 ! D94   D(37,35,36,38)        172.5754                                         !
 ! D95   D(37,35,36,40)        -68.7225                                         !
 ! D96   D(37,35,36,42)         52.5079                                         !
 ! D97   D(34,35,37,39)        -58.1565                                         !
 ! D98   D(34,35,37,41)       -177.3543                                         !
 ! D99   D(34,35,37,43)         60.8852                                         !
 ! D100  D(36,35,37,39)       -166.1985                                         !
 ! D101  D(36,35,37,41)         74.6037                                         !
 ! D102  D(36,35,37,43)        -47.1568                                         !
 ! D103  D(35,36,42,2)         -24.2209                                         !
 ! D104  D(38,36,42,2)        -140.7371                                         !
 ! D105  D(40,36,42,2)          94.8249                                         !
 ! D106  D(35,37,43,2)          -1.1673                                         !
 ! D107  D(35,37,43,12)       -149.1436                                         !
 ! D108  D(39,37,43,2)         114.6251                                         !
 ! D109  D(39,37,43,12)        -33.3512                                         !
 ! D110  D(41,37,43,2)        -120.3258                                         !
 ! D111  D(41,37,43,12)         91.6979                                         !
 --------------------------------------------------------------------------------
                          Input orientation:                          
 ---------------------------------------------------------------------
 Center     Atomic      Atomic             Coordinates (Angstroms)
 Number     Number       Type             X           Y           Z
 ---------------------------------------------------------------------
      1         82           0        0.128516   -0.333230   -0.292237
      2         17           0        1.168053    2.126989   -1.647460
      3         17           0        0.328520   -2.219680   -2.360152
      4          8           0       -0.620320    1.186956    1.638723
      5         16           0        0.251974    2.222161    2.448856
      6          6           0        0.100533    3.816317    1.562316
      7          6           0        1.992644    1.886355    1.996707
      8          1           0       -0.951431    4.140155    1.661888
      9          1           0        2.187200    0.827883    2.250764
     10          1           0        0.772796    4.544382    2.056070
     11          1           0        2.639841    2.567845    2.581315
     12          1           0        0.381648    3.646431    0.503638
     13          1           0        2.099068    2.043828    0.904158
     14          8           0       -1.057654   -1.840085    1.152708
     15         16           0       -2.445823   -1.336203    1.740878
     16          6           0       -3.672983   -2.391390    0.904462
     17          6           0       -2.472524   -2.120835    3.384576
     18          1           0       -3.669359   -2.038394   -0.142595
     19          1           0       -1.698336   -1.606755    3.982689
     20          1           0       -4.663653   -2.234490    1.372555
     21          1           0       -3.470683   -1.970963    3.838447
     22          1           0       -3.344550   -3.444790    0.981036
     23          1           0       -2.233444   -3.194399    3.268154
     24          8           0        2.281524   -1.176652    0.880927
     25         16           0        3.685417   -1.465668    0.219763
     26          6           0        4.819808   -0.188556    0.878853
     27          6           0        3.592516   -0.835805   -1.494160
     28          1           0        4.880736   -0.352087    1.970149
     29          1           0        2.858159   -1.478416   -2.020380
     30          1           0        5.812577   -0.338561    0.413009
     31          1           0        4.599182   -0.922449   -1.946122
     32          1           0        4.415550    0.814457    0.647627
     33          1           0        3.233950    0.214084   -1.473631
     34          8           0       -2.232055   -0.150712   -0.935956
     35         16           0       -2.970009    1.039978   -1.678642
     36          6           0       -2.071202    1.235518   -3.255327
     37          6           0       -2.397088    2.564701   -0.857507
     38          1           0       -2.222930    0.294467   -3.814435
     39          1           0       -2.665991    2.452589    0.208007
     40          1           0       -2.514795    2.088919   -3.803080
     41          1           0       -2.927818    3.420504   -1.316838
     42          1           0       -0.999572    1.408042   -3.024864
     43          1           0       -1.297884    2.637970   -0.982641
 ---------------------------------------------------------------------
                    Distance matrix (angstroms):
                    1          2          3          4          5
     1  Pb   0.000000
     2  Cl   2.994987   0.000000
     3  Cl   2.806238   4.484003   0.000000
     4  O    2.569110   3.857582   5.338209   0.000000
     5  S    3.749514   4.198578   6.546936   1.577612   0.000000
     6  C    4.545205   3.781017   7.202152   2.727454   1.830360
     7  C    3.693345   3.744037   6.213780   2.728533   1.829518
     8  H    4.999606   4.415522   7.632994   2.971793   2.397125
     9  H    3.471774   4.233496   5.831199   2.895807   2.393397
    10  H    5.451673   4.440287   8.090299   3.658860   2.412104
    11  H    4.793776   4.499227   7.258147   3.663876   2.416392
    12  H    4.066349   2.748520   6.528046   2.888144   2.414381
    13  H    3.311320   2.717436   5.654030   2.944297   2.414467
    14  O    2.401140   5.341572   3.795491   3.096845   4.460602
    15  S    3.430267   6.044389   5.029509   3.115964   4.521205
    16  C    4.485477   7.096738   5.167128   4.760510   6.251023
    17  C    4.845605   7.524573   6.391989   4.173744   5.211533
    18  H    4.165792   6.558627   4.575310   4.782532   6.343878
    19  H    4.820191   7.338638   6.686962   3.802778   4.562560
    20  H    5.417675   7.883640   6.233387   5.303365   6.721871
    21  H    5.718299   8.270807   7.274505   4.789134   5.776800
    22  H    4.833758   7.636577   5.114282   5.413599   6.870503
    23  H    5.142132   8.003163   6.260317   4.945047   6.015619
    24  O    2.592898   4.306577   3.925140   3.818586   4.257864
    25  S    3.767773   4.767686   4.300378   5.252546   5.509761
    26  C    4.837417   5.007926   5.898159   5.662546   5.398293
    27  C    3.700879   3.831406   3.649483   5.626234   6.004811
    28  H    5.263301   5.746036   6.554546   5.721898   5.318021
    29  H    3.427665   3.999309   2.657817   5.709033   6.360860
    30  H    5.727648   5.647661   6.426812   6.723968   6.451532
    31  H    4.803059   4.600100   4.482497   6.674122   6.935605
    32  H    4.536430   4.187649   5.912406   5.145971   4.749886
    33  H    3.367338   2.820878   3.892384   5.048626   5.320757
    34  O    2.453565   4.153902   3.586853   3.319038   4.822642
    35  S    3.661786   4.278566   4.687230   4.067868   5.367958
    36  C    4.009942   3.724612   4.300977   5.104816   6.237653
    37  C    3.885383   3.677750   5.707642   3.359501   4.250517
    38  H    4.281259   4.421842   3.865976   5.753419   7.004995
    39  H    3.977474   4.271846   6.114952   2.798847   3.686328
    40  H    5.017959   4.267495   5.360085   5.832305   6.838089
    41  H    4.947879   4.307976   6.595750   4.364473   5.072234
    42  H    3.431015   2.666970   3.919954   4.684203   5.673691
    43  H    3.367388   2.604598   5.304667   3.071820   3.788156
                    6          7          8          9         10
     6  C    0.000000
     7  C    2.737432   0.000000
     8  H    1.105177   3.722808   0.000000
     9  H    3.709296   1.105785   4.600970   0.000000
    10  H    1.107163   2.925177   1.814315   3.981307   0.000000
    11  H    3.007511   1.106823   4.026753   1.828009   2.769194
    12  H    1.108461   2.814682   1.833687   3.775802   1.835581
    13  H    2.751187   1.108958   3.778133   1.816490   3.055924
    14  O    5.788269   4.889071   6.002818   4.341988   6.702837
    15  S    5.750154   5.490931   5.677143   5.138887   6.711195
    16  C    7.294369   7.182718   7.116293   6.820410   8.318418
    17  C    6.722426   6.158042   6.669435   5.629698   7.531410
    18  H    7.169131   7.213774   6.986970   6.945717   8.240133
    19  H    6.205146   5.456123   6.242672   4.901471   6.903248
    20  H    7.703618   7.853485   7.382439   7.555367   8.716379
    21  H    7.171259   6.936775   6.959152   6.508910   7.977073
    22  H    8.057925   7.611724   7.982605   7.104098   9.051802
    23  H    7.583367   6.729819   7.617042   6.062667   8.390194
    24  O    5.490970   3.272680   6.271391   2.429715   6.032201
    25  S    6.523282   4.154404   7.416559   3.410278   6.926477
    26  C    6.227173   3.680721   7.256589   3.137820   6.337574
    27  C    6.571015   4.707006   7.440987   4.332116   7.035721
    28  H    6.355490   3.654094   7.368137   2.954016   6.392023
    29  H    6.962356   5.311101   7.722721   4.900191   7.565730
    30  H    7.156211   4.695768   8.207948   4.228628   7.207091
    31  H    7.416392   5.498120   8.334087   5.147346   7.781067
    32  H    5.335465   2.973122   6.394802   2.745136   5.400529
    33  H    5.657858   4.047292   6.539337   3.917085   6.104715
    34  O    5.236377   5.531568   5.176904   5.535580   6.326552
    35  S    5.257385   6.233175   4.984465   6.487065   6.343304
    36  C    5.881041   6.672504   5.819778   6.972603   6.873707
    37  C    3.695970   5.279814   3.304441   5.804617   4.738801
    38  H    6.834571   7.353540   6.811471   7.518006   7.842128
    39  H    3.368614   5.022245   2.810936   5.510534   4.429016
    40  H    6.213800   7.348168   6.042975   7.768397   7.153124
    41  H    4.197274   6.127328   3.646480   6.753731   5.131682
    42  H    5.296437   5.865009   5.425164   6.190667   6.228468
    43  H    3.133828   4.502112   3.061066   5.086957   4.141967
                   11         12         13         14         15
    11  H    0.000000
    12  H    3.252618   0.000000
    13  H    1.838446   2.382916   0.000000
    14  O    5.928089   5.709181   5.011133   0.000000
    15  S    6.466213   5.861058   5.725447   1.589608   0.000000
    16  C    8.201073   7.283954   7.279267   2.684308   1.821794
    17  C    6.983210   7.050352   6.663058   2.657426   1.821566
    18  H    8.273036   7.010386   7.143876   2.922009   2.353206
    19  H    6.181498   6.635216   6.101179   2.910964   2.378582
    20  H    8.824089   7.797135   8.016096   3.634160   2.421022
    21  H    7.714898   7.583964   7.466640   3.612898   2.419308
    22  H    8.632822   8.024830   7.730706   2.799008   2.414790
    23  H    7.577870   7.828040   7.197094   2.773403   2.414657
    24  O    4.128071   5.197501   3.225728   3.415277   4.807576
    25  S    4.789508   6.093361   3.911708   4.848433   6.318438
    26  C    3.904917   5.877515   3.519461   6.111228   7.406050
    27  C    5.394620   5.864411   4.034179   5.444132   6.868582
    28  H    3.731104   6.195208   3.822881   6.176311   7.395912
    29  H    6.131516   6.226382   4.640619   5.053007   6.503808
    30  H    4.818194   6.736718   4.439274   7.071195   8.423758
    31  H    6.043083   6.683082   4.813882   6.514952   7.962240
    32  H    3.157002   4.930840   2.635005   6.103906   7.273169
    33  H    4.726070   4.881212   3.207771   5.434623   6.707927
    34  O    6.595234   4.829304   5.192365   2.931845   2.935391
    35  S    7.207775   4.773840   5.777033   4.468602   4.196918
    36  C    7.618098   5.094978   5.945236   5.469679   5.631710
    37  C    6.098865   3.277839   4.856973   5.023662   4.687326
    38  H    8.349874   6.055183   6.633630   5.530523   5.793985
    39  H    5.813581   3.286450   4.832959   4.680412   4.093057
    40  H    8.219497   5.418768   6.591498   6.490005   6.517030
    41  H    6.849924   3.783880   5.665479   6.104914   5.675228
    42  H    6.783783   4.400964   5.044107   5.292052   5.686372
    43  H    5.311532   2.459034   3.930941   4.966930   4.952713
                   16         17         18         19         20
    16  C    0.000000
    17  C    2.768622   0.000000
    18  H    1.104965   3.725607   0.000000
    19  H    3.740369   1.105162   4.592299   0.000000
    20  H    1.106868   2.976944   1.822842   3.999994   0.000000
    21  H    2.970850   1.106698   3.986566   1.815121   2.751953
    22  H    1.106067   2.879287   1.829207   3.885655   1.832525
    23  H    2.881690   1.106008   3.877036   1.821404   3.228101
    24  O    6.077195   5.455338   6.099443   5.064110   7.042457
    25  S    7.447941   6.954533   7.385936   6.569956   8.463273
    26  C    8.773860   7.949242   8.748211   7.357397   9.714197
    27  C    7.807734   7.889112   7.483834   7.653977   8.850916
    28  H    8.857796   7.694122   8.967242   6.993476   9.746585
    29  H    7.214156   7.618559   6.815287   7.537570   8.286212
    30  H    9.717586   8.980513   9.649105   8.412179  10.689559
    31  H    8.871997   8.936526   8.536206   8.676279   9.926489
    32  H    8.704470   7.971976   8.609818   7.373230   9.604870
    33  H    7.755614   7.849705   7.382478   7.577225   8.744622
    34  O    3.237908   4.754598   2.501720   5.157323   3.947660
    35  S    4.352113   5.989525   3.510684   6.377540   4.785433
    36  C    5.746652   7.450804   4.791837   7.785013   6.338694
    37  C    5.412511   6.321013   4.828897   6.427814   5.756971
    38  H    5.620006   7.597482   4.584408   8.042697   6.265589
    39  H    4.996321   5.571735   4.615040   5.626975   5.226427
    40  H    6.601175   8.329838   5.636211   8.656951   7.077898
    41  H    6.266383   7.281279   5.632788   7.407425   6.498070
    42  H    6.084605   7.463477   5.226199   7.660488   6.784602
    43  H    5.873390   6.564951   5.310173   6.544658   6.373084
                   21         22         23         24         25
    21  H    0.000000
    22  H    3.217588   0.000000
    23  H    1.831062   2.555027   0.000000
    24  O    6.516574   6.066893   5.491365   0.000000
    25  S    8.034921   7.342813   6.878526   1.578475   0.000000
    26  C    8.981559   8.790350   8.030704   2.723825   1.830917
    27  C    8.922671   7.813853   7.885710   2.734212   1.828357
    28  H    8.709620   8.842991   7.770142   2.936361   2.394306
    29  H    8.638443   7.165803   7.539073   2.973407   2.388045
    30  H   10.028822   9.686294   9.002562   3.659191   2.415062
    31  H    9.984154   8.833648   8.890175   3.664473   2.412698
    32  H    8.951679   8.858415   8.194340   2.927971   2.432105
    33  H    8.828629   7.917665   7.999668   2.895722   2.427545
    34  O    5.257606   3.970322   5.190238   4.972526   6.171003
    35  S    6.305133   5.227554   6.553111   6.248475   7.360496
    36  C    7.909595   6.439990   7.887097   6.470965   7.246470
    37  C    6.616406   6.355463   7.086260   6.237731   7.375720
    38  H    8.078097   6.183576   7.895274   6.670886   7.367591
    39  H    5.778878   5.986410   6.437396   6.172691   7.462792
    40  H    8.705704   7.361943   8.831475   7.457114   8.201279
    41  H    7.479276   7.251632   8.078444   7.287062   8.364850
    42  H    8.039222   6.715367   7.893477   5.718518   6.382394
    43  H    7.014712   6.711545   7.277434   5.553052   6.566499
                   26         27         28         29         30
    26  C    0.000000
    27  C    2.748885   0.000000
    28  H    1.105161   3.727590   0.000000
    29  H    3.730597   1.108664   4.613432   0.000000
    30  H    1.106843   2.968706   1.814716   3.993650   0.000000
    31  H    2.927073   1.106866   3.967589   1.829146   2.716386
    32  H    1.105859   2.826306   1.823811   3.847206   1.826521
    33  H    2.865527   1.109622   3.859025   1.817886   3.242553
    34  O    7.281740   5.891229   7.686208   5.371132   8.159112
    35  S    8.290435   6.827835   8.768450   6.358194   9.132863
    36  C    8.161216   6.282499   8.840562   5.761001   8.836764
    37  C    7.917004   6.916945   8.334867   6.731767   8.800098
    38  H    8.477053   6.362437   9.183763   5.672673   9.101724
    39  H    7.966358   7.271851   8.241628   7.136858   8.928530
    40  H    8.994653   7.154325   9.694460   6.691228   9.644334
    41  H    8.824516   7.788605   9.274171   7.613929   9.670442
    42  H    7.187025   5.335278   7.913674   4.921658   7.827834
    43  H    6.991463   6.020364   7.472265   5.940895   7.833660
                   31         32         33         34         35
    31  H    0.000000
    32  H    3.126995   0.000000
    33  H    1.838155   2.501272   0.000000
    34  O    6.948512   6.901445   5.504487   0.000000
    35  S    7.824022   7.746539   6.262047   1.585529   0.000000
    36  C    7.131961   7.582104   5.688796   2.706842   1.825384
    37  C    7.892597   7.193109   6.132992   2.721554   1.824084
    38  H    7.177234   8.015598   5.938296   2.912715   2.382335
    39  H    8.295414   7.281824   6.530552   2.876479   2.376414
    40  H    7.945143   8.334430   6.479923   3.649149   2.412619
    41  H    8.712805   8.035899   6.947884   3.658243   2.408233
    42  H    6.159620   6.569862   4.664179   2.883101   2.414623
    43  H    6.955592   6.215006   5.162733   2.941360   2.415367
                   36         37         38         39         40
    36  C    0.000000
    37  C    2.760882   0.000000
    38  H    1.105079   3.731985   0.000000
    39  H    3.718834   1.104626   4.586266   0.000000
    40  H    1.106843   2.986071   1.818068   4.030377   0.000000
    41  H    3.043960   1.106824   4.062876   1.824984   2.850456
    42  H    1.109625   2.826366   1.833051   3.784110   1.834424
    43  H    2.780287   1.108727   3.790352   1.823108   3.120449
                   41         42         43
    41  H    0.000000
    42  H    3.268866   0.000000
    43  H    1.838677   2.402580   0.000000
 Stoichiometry    C8H24Cl2O4PbS4
 Framework group  C1[X(C8H24Cl2O4PbS4)]
 Deg. of freedom   123
 Full point group                 C1      NOp   1
 Largest Abelian subgroup         C1      NOp   1
 Largest concise Abelian subgroup C1      NOp   1
                         Standard orientation:                         
 ---------------------------------------------------------------------
 Center     Atomic      Atomic             Coordinates (Angstroms)
 Number     Number       Type             X           Y           Z
 ---------------------------------------------------------------------
      1         82           0        0.128813   -0.327050   -0.300090
      2         17           0        1.173689    2.159149   -1.602778
      3         17           0        0.328328   -2.170480   -2.406492
      4          8           0       -0.619935    1.153892    1.661163
      5         16           0        0.253003    2.170700    2.493594
      6          6           0        0.105032    3.783147    1.640167
      7          6           0        1.993681    1.841645    2.036538
      8          1           0       -0.946550    4.106485    1.745253
      9          1           0        2.186320    0.777827    2.268787
     10          1           0        0.777836    4.499761    2.149687
     11          1           0        2.641241    2.509847    2.635896
     12          1           0        0.387115    3.634836    0.578509
     13          1           0        2.101613    2.021596    0.947613
     14          8           0       -1.061339   -1.861726    1.111924
     15         16           0       -2.449417   -1.368002    1.708860
     16          6           0       -3.677220   -2.403691    0.849336
     17          6           0       -2.479227   -2.186539    3.335885
     18          1           0       -3.671839   -2.029044   -0.190163
     19          1           0       -1.704948   -1.686190    3.945414
     20          1           0       -4.668191   -2.255000    1.319467
     21          1           0       -3.477681   -2.044568    3.791642
     22          1           0       -3.350490   -3.458963    0.904398
     23          1           0       -2.241657   -3.257826    3.197473
     24          8           0        2.279164   -1.197988    0.857742
     25         16           0        3.683379   -1.475402    0.192306
     26          6           0        4.818959   -0.214011    0.879044
     27          6           0        3.593432   -0.809956   -1.508277
     28          1           0        4.878370   -0.400252    1.966778
     29          1           0        2.858703   -1.440363   -2.048551
     30          1           0        5.812037   -0.355858    0.411308
     31          1           0        4.600488   -0.888765   -1.960803
     32          1           0        4.416506    0.794213    0.668233
     33          1           0        3.236451    0.239838   -1.466363
     34          8           0       -2.230727   -0.127539   -0.942545
     35         16           0       -2.965994    1.079456   -1.661188
     36          6           0       -2.065059    1.306282   -3.232459
     37          6           0       -2.391692    2.585914   -0.807933
     38          1           0       -2.217580    0.377276   -3.811151
     39          1           0       -2.662003    2.452129    0.254720
     40          1           0       -2.506709    2.171558   -3.762878
     41          1           0       -2.920578    3.451891   -1.249999
     42          1           0       -0.993435    1.472319   -2.997255
     43          1           0       -1.292233    2.660055   -0.930278
 ---------------------------------------------------------------------
 Rotational constants (GHZ):           0.1910225           0.1440301           0.1411685
 General basis read from cards:  (5D, 7F)
 ======================================================================================================
                                       Pseudopotential Parameters
 ======================================================================================================
  Center     Atomic      Valence      Angular      Power
  Number     Number     Electrons     Momentum     of R      Exponent        Coefficient   SO-Coeffient
 ======================================================================================================
    1         82            4
                                      G and up 
                                                     0      376.5803786       -0.17896050    0.00000000
                                                     1       86.4840014      -54.39723370    0.00000000
                                                     2       26.6784276     -199.70617590    0.00000000
                                                     2        9.4261986      -79.12239410    0.00000000
                                                     2        2.7101719      -24.98690200    0.00000000
                                                     2        0.8792031       -4.43979390    0.00000000
                                      S - G
                                                     0      132.4248796        2.81153860    0.00000000
                                                     1       47.2376044       65.03672050    0.00000000
                                                     2       17.6312727      212.78685450    0.00000000
                                                     2        5.4744712       72.10531750    0.00000000
                                                     2        1.2634856       33.01409400    0.00000000
                                                     2        0.7651447       -5.77084610    0.00000000
                                      P - G
                                                     0       67.8966454        4.87549110    0.00000000
                                                     1       24.9898225       63.91481020    0.00000000
                                                     2       10.7052939      148.10643580    0.00000000
                                                     2        3.2792568       47.31063010    0.00000000
                                                     2        0.8452522       21.03067020    0.00000000
                                                     2        0.6416245       -7.09307720    0.00000000
                                      D - G
                                                     0       68.8336005        3.21613880    0.00000000
                                                     1       24.2815874       55.73860860    0.00000000
                                                     2        9.4532762      121.41683510    0.00000000
                                                     2        2.4788185       19.34560640    0.00000000
                                                     2        2.4789161       15.36751680    0.00000000
                                                     2        0.5551738        6.12987240    0.00000000
                                      F - G
                                                     0      128.1021322        4.13536820    0.00000000
                                                     1       54.8029154       67.51284460    0.00000000
                                                     2       24.5529308      258.73731070    0.00000000
                                                     2        8.1144792      113.24782640    0.00000000
                                                     2        1.6931290       34.16802010    0.00000000
                                                     2        0.7670500       -6.55319560    0.00000000
    2         17
                                   No pseudopotential on this center.
    3         17
                                   No pseudopotential on this center.
    4          8
                                   No pseudopotential on this center.
    5         16
                                   No pseudopotential on this center.
    6          6
                                   No pseudopotential on this center.
    7          6
                                   No pseudopotential on this center.
    8          1
                                   No pseudopotential on this center.
    9          1
                                   No pseudopotential on this center.
   10          1
                                   No pseudopotential on this center.
   11          1
                                   No pseudopotential on this center.
   12          1
                                   No pseudopotential on this center.
   13          1
                                   No pseudopotential on this center.
   14          8
                                   No pseudopotential on this center.
   15         16
                                   No pseudopotential on this center.
   16          6
                                   No pseudopotential on this center.
   17          6
                                   No pseudopotential on this center.
   18          1
                                   No pseudopotential on this center.
   19          1
                                   No pseudopotential on this center.
   20          1
                                   No pseudopotential on this center.
   21          1
                                   No pseudopotential on this center.
   22          1
                                   No pseudopotential on this center.
   23          1
                                   No pseudopotential on this center.
   24          8
                                   No pseudopotential on this center.
   25         16
                                   No pseudopotential on this center.
   26          6
                                   No pseudopotential on this center.
   27          6
                                   No pseudopotential on this center.
   28          1
                                   No pseudopotential on this center.
   29          1
                                   No pseudopotential on this center.
   30          1
                                   No pseudopotential on this center.
   31          1
                                   No pseudopotential on this center.
   32          1
                                   No pseudopotential on this center.
   33          1
                                   No pseudopotential on this center.
   34          8
                                   No pseudopotential on this center.
   35         16
                                   No pseudopotential on this center.
   36          6
                                   No pseudopotential on this center.
   37          6
                                   No pseudopotential on this center.
   38          1
                                   No pseudopotential on this center.
   39          1
                                   No pseudopotential on this center.
   40          1
                                   No pseudopotential on this center.
   41          1
                                   No pseudopotential on this center.
   42          1
                                   No pseudopotential on this center.
   43          1
                                   No pseudopotential on this center.
 ======================================================================================================
 There are  1022 symmetry adapted cartesian basis functions of A   symmetry.
 There are   908 symmetry adapted basis functions of A   symmetry.
   908 basis functions,  1608 primitive gaussians,  1022 cartesian basis functions
   103 alpha electrons      103 beta electrons
       nuclear repulsion energy      2568.0574002819 Hartrees.
 NAtoms=   43 NActive=   43 NUniq=   43 SFac= 1.00D+00 NAtFMM=   60 NAOKFM=F Big=F
 Integral buffers will be    131072 words long.
 Raffenetti 1 integral format.
 Two-electron integral symmetry is turned on.
 Nuclear repulsion after empirical dispersion term =     2567.9991688456 Hartrees.
 ------------------------------------------------------------------------------
 Polarizable Continuum Model (PCM)
 =================================
 Model                : PCM.
 Atomic radii         : UFF (Universal Force Field).
 Polarization charges : Total charges.
 Charge compensation  : None.
 Solution method      : On-the-fly selection.
 Cavity type          : Scaled VdW (van der Waals Surface) (Alpha=1.100).
 Cavity algorithm     : GePol (No added spheres)
                        Default sphere list used, NSphG=   43.
                        Lebedev-Laikov grids with approx.  5.0 points / Ang**2.
                        Smoothing algorithm: York/Karplus (Gamma=1.0000).
                        Polarization charges: spherical gaussians, with
                                              point-specific exponents (IZeta= 3).
                        Self-potential: point-specific (ISelfS= 7).
                        Self-field    : sphere-specific E.n sum rule (ISelfD= 2).
 Solvent              : DiMethylSulfoxide, Eps=  46.826000 Eps(inf)=   2.007889
 ------------------------------------------------------------------------------
 One-electron integrals computed using PRISM.
   1 Symmetry operations used in ECPInt.
 ECPInt:  NShTT=   57970 NPrTT=  287582 LenC2=   47233 LenP2D=  132422.
 LDataN:  DoStor=T MaxTD1= 7 Len=  274
 NBasis=   908 RedAO= T EigKep=  1.05D-03  NBF=   908
 NBsUse=   908 1.00D-06 EigRej= -1.00D+00 NBFU=   908
 Defaulting to unpruned grid for atomic number  82.
 Initial guess from the checkpoint file:  "02-PbCl2_dmso.chk"
 B after Tr=    -0.000000    0.000000    0.000000
         Rot=    1.000000    0.000000   -0.000000    0.000000 Ang=   0.00 deg.
 Requested convergence on RMS density matrix=1.00D-08 within 128 cycles.
 Requested convergence on MAX density matrix=1.00D-06.
 Requested convergence on             energy=1.00D-06.
 No special actions if energy rises.
 Defaulting to unpruned grid for atomic number  82.
 Defaulting to unpruned grid for atomic number  82.
 Defaulting to unpruned grid for atomic number  82.
 Defaulting to unpruned grid for atomic number  82.
 Defaulting to unpruned grid for atomic number  82.
 Inv3:  Mode=1 IEnd=    35294700.
 Iteration    1 A*A^-1 deviation from unit magnitude is 3.33D-15 for   2648.
 Iteration    1 A*A^-1 deviation from orthogonality  is 4.00D-15 for   1867    747.
 Iteration    1 A^-1*A deviation from unit magnitude is 3.33D-15 for   3164.
 Iteration    1 A^-1*A deviation from orthogonality  is 2.41D-15 for    633     98.
 Error on total polarization charges =  0.02091
 SCF Done:  E(RCAM-B3LYP) =  -3137.06663507     A.U. after   12 cycles
            NFock= 12  Conv=0.41D-08     -V/T= 2.0048
 DoSCS=F DFT=T ScalE2(SS,OS)=  1.000000  1.000000
 ExpMin= 5.98D-02 ExpMax= 4.56D+05 ExpMxC= 1.44D+03 IAcc=3 IRadAn=         5 AccDes= 0.00D+00
 HarFok:  IExCor=  205 AccDes= 0.00D+00 IRadAn=         5 IDoV=-2 UseB2=F ITyADJ=14
 ICtDFT= 12500011 ScaDFX=  1.000000  1.000000  1.000000  1.000000
 Defaulting to unpruned grid for atomic number  82.
 GSVD:  LWork=       -2100 too small for GESVD, short by        9450 words or        9450 for optimal perf.
 Range of M.O.s used for correlation:    43   908
 NBasis=   908 NAE=   103 NBE=   103 NFC=    42 NFV=     0
 NROrb=    866 NOA=    61 NOB=    61 NVA=   805 NVB=   805

 **** Warning!!: The largest alpha MO coefficient is  0.10093616D+02

 NEqPCM:  Using non-equilibrium solvation (IEInf=1, Eps=  46.8260, EpsInf=   2.0079)
 Inv3:  Mode=1 IEnd=    35294700.
 Iteration    1 A*A^-1 deviation from unit magnitude is 4.22D-15 for   2617.
 Iteration    1 A*A^-1 deviation from orthogonality  is 2.00D-15 for   1813    524.
 Iteration    1 A^-1*A deviation from unit magnitude is 3.77D-15 for   2617.
 Iteration    1 A^-1*A deviation from orthogonality  is 1.89D-15 for   1959    251.
 Orbital symmetries:
       Occupied  (A) (A) (A) (A) (A) (A) (A) (A) (A) (A) (A) (A)
                 (A) (A) (A) (A) (A) (A) (A) (A) (A) (A) (A) (A)
                 (A) (A) (A) (A) (A) (A) (A) (A) (A) (A) (A) (A)
                 (A) (A) (A) (A) (A) (A) (A) (A) (A) (A) (A) (A)
                 (A) (A) (A) (A) (A) (A) (A) (A) (A) (A) (A) (A)
                 (A) (A) (A) (A) (A) (A) (A) (A) (A) (A) (A) (A)
                 (A) (A) (A) (A) (A) (A) (A) (A) (A) (A) (A) (A)
                 (A) (A) (A) (A) (A) (A) (A) (A) (A) (A) (A) (A)
                 (A) (A) (A) (A) (A) (A) (A)
       Virtual   (A) (A) (A) (A) (A) (A) (A) (A) (A) (A) (A) (A)
                 (A) (A) (A) (A) (A) (A) (A) (A) (A) (A) (A) (A)
                 (A) (A) (A) (A) (A) (A) (A) (A) (A) (A) (A) (A)
                 (A) (A) (A) (A) (A) (A) (A) (A) (A) (A) (A) (A)
                 (A) (A) (A) (A) (A) (A) (A) (A) (A) (A) (A) (A)
                 (A) (A) (A) (A) (A) (A) (A) (A) (A) (A) (A) (A)
                 (A) (A) (A) (A) (A) (A) (A) (A) (A) (A) (A) (A)
                 (A) (A) (A) (A) (A) (A) (A) (A) (A) (A) (A) (A)
                 (A) (A) (A) (A) (A) (A) (A) (A) (A) (A) (A) (A)
                 (A) (A) (A) (A) (A) (A) (A) (A) (A) (A) (A) (A)
                 (A) (A) (A) (A) (A) (A) (A) (A) (A) (A) (A) (A)
                 (A) (A) (A) (A) (A) (A) (A) (A) (A) (A) (A) (A)
                 (A) (A) (A) (A) (A) (A) (A) (A) (A) (A) (A) (A)
                 (A) (A) (A) (A) (A) (A) (A) (A) (A) (A) (A) (A)
                 (A) (A) (A) (A) (A) (A) (A) (A) (A) (A) (A) (A)
                 (A) (A) (A) (A) (A) (A) (A) (A) (A) (A) (A) (A)
                 (A) (A) (A) (A) (A) (A) (A) (A) (A) (A) (A) (A)
                 (A) (A) (A) (A) (A) (A) (A) (A) (A) (A) (A) (A)
                 (A) (A) (A) (A) (A) (A) (A) (A) (A) (A) (A) (A)
                 (A) (A) (A) (A) (A) (A) (A) (A) (A) (A) (A) (A)
                 (A) (A) (A) (A) (A) (A) (A) (A) (A) (A) (A) (A)
                 (A) (A) (A) (A) (A) (A) (A) (A) (A) (A) (A) (A)
                 (A) (A) (A) (A) (A) (A) (A) (A) (A) (A) (A) (A)
                 (A) (A) (A) (A) (A) (A) (A) (A) (A) (A) (A) (A)
                 (A) (A) (A) (A) (A) (A) (A) (A) (A) (A) (A) (A)
                 (A) (A) (A) (A) (A) (A) (A) (A) (A) (A) (A) (A)
                 (A) (A) (A) (A) (A) (A) (A) (A) (A) (A) (A) (A)
                 (A) (A) (A) (A) (A) (A) (A) (A) (A) (A) (A) (A)
                 (A) (A) (A) (A) (A) (A) (A) (A) (A) (A) (A) (A)
                 (A) (A) (A) (A) (A) (A) (A) (A) (A) (A) (A) (A)
                 (A) (A) (A) (A) (A) (A) (A) (A) (A) (A) (A) (A)
                 (A) (A) (A) (A) (A) (A) (A) (A) (A) (A) (A) (A)
                 (A) (A) (A) (A) (A) (A) (A) (A) (A) (A) (A) (A)
                 (A) (A) (A) (A) (A) (A) (A) (A) (A) (A) (A) (A)
                 (A) (A) (A) (A) (A) (A) (A) (A) (A) (A) (A) (A)
                 (A) (A) (A) (A) (A) (A) (A) (A) (A) (A) (A) (A)
                 (A) (A) (A) (A) (A) (A) (A) (A) (A) (A) (A) (A)
                 (A) (A) (A) (A) (A) (A) (A) (A) (A) (A) (A) (A)
                 (A) (A) (A) (A) (A) (A) (A) (A) (A) (A) (A) (A)
                 (A) (A) (A) (A) (A) (A) (A) (A) (A) (A) (A) (A)
                 (A) (A) (A) (A) (A) (A) (A) (A) (A) (A) (A) (A)
                 (A) (A) (A) (A) (A) (A) (A) (A) (A) (A) (A) (A)
                 (A) (A) (A) (A) (A) (A) (A) (A) (A) (A) (A) (A)
                 (A) (A) (A) (A) (A) (A) (A) (A) (A) (A) (A) (A)
                 (A) (A) (A) (A) (A) (A) (A) (A) (A) (A) (A) (A)
                 (A) (A) (A) (A) (A) (A) (A) (A) (A) (A) (A) (A)
                 (A) (A) (A) (A) (A) (A) (A) (A) (A) (A) (A) (A)
                 (A) (A) (A) (A) (A) (A) (A) (A) (A) (A) (A) (A)
                 (A) (A) (A) (A) (A) (A) (A) (A) (A) (A) (A) (A)
                 (A) (A) (A) (A) (A) (A) (A) (A) (A) (A) (A) (A)
                 (A) (A) (A) (A) (A) (A) (A) (A) (A) (A) (A) (A)
                 (A) (A) (A) (A) (A) (A) (A) (A) (A) (A) (A) (A)
                 (A) (A) (A) (A) (A) (A) (A) (A) (A) (A) (A) (A)
                 (A) (A) (A) (A) (A) (A) (A) (A) (A) (A) (A) (A)
                 (A) (A) (A) (A) (A) (A) (A) (A) (A) (A) (A) (A)
                 (A) (A) (A) (A) (A) (A) (A) (A) (A) (A) (A) (A)
                 (A) (A) (A) (A) (A) (A) (A) (A) (A) (A) (A) (A)
                 (A) (A) (A) (A) (A) (A) (A) (A) (A) (A) (A) (A)
                 (A) (A) (A) (A) (A) (A) (A) (A) (A) (A) (A) (A)
                 (A) (A) (A) (A) (A) (A) (A) (A) (A) (A) (A) (A)
                 (A) (A) (A) (A) (A) (A) (A) (A) (A) (A) (A) (A)
                 (A) (A) (A) (A) (A) (A) (A) (A) (A) (A) (A) (A)
                 (A) (A) (A) (A) (A) (A) (A) (A) (A) (A) (A) (A)
                 (A) (A) (A) (A) (A) (A) (A) (A) (A) (A) (A) (A)
                 (A) (A) (A) (A) (A) (A) (A) (A) (A) (A) (A) (A)
                 (A) (A) (A) (A) (A) (A) (A) (A) (A) (A) (A) (A)
                 (A) (A) (A) (A) (A) (A) (A) (A) (A) (A) (A) (A)
                 (A)
    40 initial guesses have been made.
 Convergence on wavefunction:    0.001000000000000
 Iteration     1 Dimension    40 NMult     0 NNew     40
 CISAX will form    40 AO SS matrices at one time.
 Defaulting to unpruned grid for atomic number  82.
 Defaulting to unpruned grid for atomic number  82.
 Defaulting to unpruned grid for atomic number  82.
 Defaulting to unpruned grid for atomic number  82.
 Defaulting to unpruned grid for atomic number  82.
 New state      4 was old state     10
 New state      5 was old state     12
 New state      6 was old state      4
 New state      7 was old state     13
 New state      8 was old state      6
 New state      9 was old state      5
 New state     10 was old state      7
 Iteration     2 Dimension    60 NMult    40 NNew     20
 New state      5 was old state      6
 New state      6 was old state      5
 New state      8 was old state      9
 New state      9 was old state      8
 Iteration     3 Dimension    80 NMult    60 NNew     20
 Iteration     4 Dimension   100 NMult    80 NNew     20
 New state      7 was old state      8
 New state      8 was old state      7
 Iteration     5 Dimension   120 NMult   100 NNew     20
 Iteration     6 Dimension   140 NMult   120 NNew     20
 Iteration     7 Dimension   156 NMult   140 NNew     16
 Iteration     8 Dimension   166 NMult   156 NNew     10
 Iteration     9 Dimension   172 NMult   166 NNew      6
 Iteration    10 Dimension   174 NMult   172 NNew      2
 ***********************************************************************
 Excited states from <AA,BB:AA,BB> singles matrix:
 ***********************************************************************
 
 Ground to excited state transition densities written to RWF  633
 Ground to excited state transition electric dipole moments (Au):
       state          X           Y           Z        Dip. S.      Osc.
         1        -1.0064      0.5794     -0.4627      1.5626      0.2065
         2         0.3502     -0.2316     -0.8776      0.9465      0.1297
         3        -0.4494     -0.8583     -0.2699      1.0114      0.1418
         4        -0.1295     -0.3191      0.1946      0.1565      0.0226
         5         0.0515     -0.0258     -0.3245      0.1086      0.0163
         6         0.1010     -0.5909     -0.5260      0.6360      0.0966
         7        -0.4982     -0.6936      0.2061      0.7718      0.1199
         8        -0.2831      0.4664      0.0297      0.2986      0.0467
         9         0.1388      0.2863      0.4069      0.2668      0.0423
        10         0.1378     -0.0464      0.1414      0.0411      0.0066
 Ground to excited state transition velocity dipole moments (Au):
       state          X           Y           Z        Dip. S.      Osc.
         1         0.1648     -0.1016      0.0648      0.0417      0.1402
         2        -0.0466      0.0422      0.1435      0.0245      0.0796
         3         0.0834      0.1427      0.0572      0.0306      0.0970
         4         0.0293      0.0490     -0.0373      0.0046      0.0143
         5        -0.0219      0.0191      0.0536      0.0037      0.0110
         6        -0.0100      0.1053      0.0901      0.0193      0.0565
         7         0.0972      0.1225     -0.0470      0.0267      0.0763
         8         0.0752     -0.1083     -0.0010      0.0174      0.0494
         9        -0.0339     -0.0691     -0.1036      0.0166      0.0467
        10        -0.0298      0.0085     -0.0481      0.0033      0.0091
 Ground to excited state transition magnetic dipole moments (Au):
       state          X           Y           Z
         1         0.1346      0.6640      1.0074
         2        -0.4845      0.5587     -0.7817
         3        -0.4910      0.7379      0.4542
         4         0.5474      0.1908      0.4140
         5         0.1174      0.0416     -0.5651
         6         0.3972     -0.0304     -0.3881
         7         0.1587      0.3506     -0.6910
         8         0.4440      0.2508      0.0529
         9         1.3060      1.3861     -0.6778
        10        -0.8173     -1.4332      0.5693
 Ground to excited state transition velocity quadrupole moments (Au):
       state          XX          YY          ZZ          XY          XZ          YZ
         1         0.6594     -0.2322     -0.2561     -0.0337     -0.3131      0.1195
         2         0.3572      0.1367      0.1530      0.1449      0.1246     -0.0026
         3        -0.3961      0.1149     -0.0852      0.2511     -0.0046      0.1296
         4         0.6030      0.0696     -0.0296     -0.3289      0.0907     -0.1285
         5         0.5405     -0.3098      0.1337     -0.0037      0.0416     -0.2009
         6         0.1217     -0.2009     -0.4326      0.0873      0.1186     -0.3690
         7        -0.2816      0.0708     -0.1673     -0.1849      0.4407     -0.2342
         8         0.4401     -0.8283      0.3493      0.3904      0.6970     -0.1974
         9        -0.6882     -0.2166      0.2084     -0.0465     -0.7007      0.1388
        10        -0.4062     -0.0280      0.6968      0.1448      0.1779     -0.1119
 <0|del|b> * <b|rxdel|0> + <0|del|b> * <b|delr+rdel|0>
 Rotatory Strengths (R) in cgs (10**-40 erg-esu-cm/Gauss)
       state          XX          YY          ZZ    R(velocity)    E-M Angle
         1       -64.5385    195.1252    -59.1961     23.7969       85.37
         2      -125.6875   -189.6769     88.1916    -75.7243      113.06
         3       245.9297    -31.1662     88.8465    101.2033       58.78
         4         2.8156    -25.0905     54.7996     10.8416       78.14
         5       -47.8358    -44.3518     -8.4238    -33.5371      155.40
         6       -66.4385    -66.9090      2.5237    -43.6079      123.03
         7        45.7029     24.9379    205.0841     91.9083       45.30
         8        72.1017     28.4537    -81.9544      6.2003       84.76
         9      -102.8346     24.3592   -129.3662    -69.2805      105.53
        10       -70.5891     10.7304     15.2329    -14.8753       98.75
 1/2[<0|r|b>*<b|rxdel|0> + (<0|rxdel|b>*<b|r|0>)*]
 Rotatory Strengths (R) in cgs (10**-40 erg-esu-cm/Gauss)
       state          XX          YY          ZZ     R(length)
         1        95.7933   -272.0839    329.6139     51.1078
         2       119.9970     91.5139   -485.1177    -91.2023
         3      -156.0386    447.8725     86.6954    126.1764
         4        50.1479     43.0553    -56.9645     12.0796
         5        -4.2767      0.7590   -129.6781    -44.3986
         6       -28.3700    -12.7144   -144.3412    -61.8085
         7        55.8995    171.9531    100.6954    109.5160
         8        88.9029    -82.7221     -1.1122      1.6895
         9      -128.1545   -280.6205    195.0447    -71.2434
        10        79.6278    -47.0292    -56.9195     -8.1070
  1/2[<0|del|b>*<b|r|0> + (<0|r|b>*<b|del|0>)*] (Au)
       state          X           Y           Z        Dip. S.   Osc.(frdel)
         1        -0.1658     -0.0589     -0.0300      0.2547      0.1698
         2        -0.0163     -0.0098     -0.1259      0.1520      0.1013
         3        -0.0375     -0.1225     -0.0154      0.1754      0.1169
         4        -0.0038     -0.0156     -0.0073      0.0267      0.0178
         5        -0.0011     -0.0005     -0.0174      0.0190      0.0127
         6        -0.0010     -0.0622     -0.0474      0.1106      0.0738
         7        -0.0484     -0.0850     -0.0097      0.1431      0.0954
         8        -0.0213     -0.0505     -0.0000      0.0718      0.0479
         9        -0.0047     -0.0198     -0.0421      0.0666      0.0444
        10        -0.0041     -0.0004     -0.0068      0.0113      0.0075

 Excitation energies and oscillator strengths:
 
 Excited State   1:      Singlet-A      5.3933 eV  229.89 nm  f=0.2065  <S**2>=0.000
     100 ->104        -0.12647
     103 ->104         0.63546
 This state for optimization and/or second-order correction.
 Total Energy, E(TD-HF/TD-DFT) =  -3136.86843570    
 Copying the excited state density for this state as the 1-particle RhoCI density.
 
 Excited State   2:      Singlet-A      5.5917 eV  221.73 nm  f=0.1297  <S**2>=0.000
     102 ->105         0.17513
     102 ->106         0.16466
     103 ->105         0.59024
 
 Excited State   3:      Singlet-A      5.7238 eV  216.61 nm  f=0.1418  <S**2>=0.000
     101 ->104        -0.11336
     102 ->105         0.22582
     103 ->105        -0.16341
     103 ->106         0.51956
 
 Excited State   4:      Singlet-A      5.9016 eV  210.09 nm  f=0.0226  <S**2>=0.000
      95 ->104         0.15579
      98 ->104         0.10457
      99 ->104         0.13429
      99 ->108        -0.10808
     100 ->104        -0.16861
     100 ->105        -0.13538
     100 ->106         0.10669
     100 ->108         0.12831
     101 ->104         0.31408
     101 ->108        -0.11585
     103 ->104        -0.10382
     103 ->107         0.10787
     103 ->108        -0.21973
 
 Excited State   5:      Singlet-A      6.1362 eV  202.06 nm  f=0.0163  <S**2>=0.000
      95 ->108         0.14067
      96 ->105         0.16122
      96 ->106        -0.13421
      97 ->105        -0.12255
      99 ->104        -0.12976
     100 ->104         0.23856
     100 ->105        -0.11339
     100 ->106         0.13112
     101 ->105        -0.10225
     101 ->108         0.10553
     102 ->104         0.15898
     103 ->104         0.20084
     103 ->107         0.10959
     103 ->108        -0.19144
     103 ->110         0.11941
 
 Excited State   6:      Singlet-A      6.1970 eV  200.07 nm  f=0.0966  <S**2>=0.000
      94 ->105        -0.10801
      96 ->105         0.10542
      96 ->106         0.11129
     102 ->105        -0.27264
     102 ->106        -0.21632
     102 ->107         0.14090
     103 ->105         0.23073
     103 ->106         0.32079
     103 ->107         0.10713
 
 Excited State   7:      Singlet-A      6.3390 eV  195.59 nm  f=0.1199  <S**2>=0.000
      95 ->105        -0.16410
      95 ->106         0.13684
      96 ->104        -0.14423
      96 ->105        -0.11355
      96 ->108        -0.12668
      97 ->105         0.11037
     100 ->104         0.21623
     100 ->108         0.12927
     101 ->104         0.16986
     102 ->106         0.12229
     103 ->105        -0.15684
     103 ->106         0.22167
     103 ->111         0.13424
     103 ->116         0.13029
 
 Excited State   8:      Singlet-A      6.3891 eV  194.05 nm  f=0.0467  <S**2>=0.000
     102 ->105         0.13094
     102 ->106         0.12216
     102 ->107         0.19698
     102 ->108         0.10851
     102 ->110         0.15264
     102 ->112        -0.10947
     103 ->107         0.45733
     103 ->108         0.18279
 
 Excited State   9:      Singlet-A      6.4653 eV  191.77 nm  f=0.0423  <S**2>=0.000
      98 ->110         0.11543
      99 ->107        -0.10431
      99 ->110         0.10785
     100 ->104        -0.13896
     100 ->110        -0.17565
     101 ->107        -0.12614
     101 ->110         0.20220
     102 ->107         0.15099
     103 ->109         0.17085
     103 ->110         0.36825
 
 Excited State  10:      Singlet-A      6.5481 eV  189.34 nm  f=0.0066  <S**2>=0.000
      95 ->109        -0.13579
     100 ->109        -0.12176
     101 ->109        -0.13507
     102 ->107        -0.12899
     103 ->107         0.13711
     103 ->109         0.44716
     103 ->112         0.15616
 SavETr:  write IOETrn=   770 NScale= 10 NData=  16 NLR=1 NState=   10 LETran=     190.

 **********************************************************************

            Population analysis using the SCF Density.

 **********************************************************************

 Orbital symmetries:
       Occupied  (A) (A) (A) (A) (A) (A) (A) (A) (A) (A) (A) (A)
                 (A) (A) (A) (A) (A) (A) (A) (A) (A) (A) (A) (A)
                 (A) (A) (A) (A) (A) (A) (A) (A) (A) (A) (A) (A)
                 (A) (A) (A) (A) (A) (A) (A) (A) (A) (A) (A) (A)
                 (A) (A) (A) (A) (A) (A) (A) (A) (A) (A) (A) (A)
                 (A) (A) (A) (A) (A) (A) (A) (A) (A) (A) (A) (A)
                 (A) (A) (A) (A) (A) (A) (A) (A) (A) (A) (A) (A)
                 (A) (A) (A) (A) (A) (A) (A) (A) (A) (A) (A) (A)
                 (A) (A) (A) (A) (A) (A) (A)
       Virtual   (A) (A) (A) (A) (A) (A) (A) (A) (A) (A) (A) (A)
                 (A) (A) (A) (A) (A) (A) (A) (A) (A) (A) (A) (A)
                 (A) (A) (A) (A) (A) (A) (A) (A) (A) (A) (A) (A)
                 (A) (A) (A) (A) (A) (A) (A) (A) (A) (A) (A) (A)
                 (A) (A) (A) (A) (A) (A) (A) (A) (A) (A) (A) (A)
                 (A) (A) (A) (A) (A) (A) (A) (A) (A) (A) (A) (A)
                 (A) (A) (A) (A) (A) (A) (A) (A) (A) (A) (A) (A)
                 (A) (A) (A) (A) (A) (A) (A) (A) (A) (A) (A) (A)
                 (A) (A) (A) (A) (A) (A) (A) (A) (A) (A) (A) (A)
                 (A) (A) (A) (A) (A) (A) (A) (A) (A) (A) (A) (A)
                 (A) (A) (A) (A) (A) (A) (A) (A) (A) (A) (A) (A)
                 (A) (A) (A) (A) (A) (A) (A) (A) (A) (A) (A) (A)
                 (A) (A) (A) (A) (A) (A) (A) (A) (A) (A) (A) (A)
                 (A) (A) (A) (A) (A) (A) (A) (A) (A) (A) (A) (A)
                 (A) (A) (A) (A) (A) (A) (A) (A) (A) (A) (A) (A)
                 (A) (A) (A) (A) (A) (A) (A) (A) (A) (A) (A) (A)
                 (A) (A) (A) (A) (A) (A) (A) (A) (A) (A) (A) (A)
                 (A) (A) (A) (A) (A) (A) (A) (A) (A) (A) (A) (A)
                 (A) (A) (A) (A) (A) (A) (A) (A) (A) (A) (A) (A)
                 (A) (A) (A) (A) (A) (A) (A) (A) (A) (A) (A) (A)
                 (A) (A) (A) (A) (A) (A) (A) (A) (A) (A) (A) (A)
                 (A) (A) (A) (A) (A) (A) (A) (A) (A) (A) (A) (A)
                 (A) (A) (A) (A) (A) (A) (A) (A) (A) (A) (A) (A)
                 (A) (A) (A) (A) (A) (A) (A) (A) (A) (A) (A) (A)
                 (A) (A) (A) (A) (A) (A) (A) (A) (A) (A) (A) (A)
                 (A) (A) (A) (A) (A) (A) (A) (A) (A) (A) (A) (A)
                 (A) (A) (A) (A) (A) (A) (A) (A) (A) (A) (A) (A)
                 (A) (A) (A) (A) (A) (A) (A) (A) (A) (A) (A) (A)
                 (A) (A) (A) (A) (A) (A) (A) (A) (A) (A) (A) (A)
                 (A) (A) (A) (A) (A) (A) (A) (A) (A) (A) (A) (A)
                 (A) (A) (A) (A) (A) (A) (A) (A) (A) (A) (A) (A)
                 (A) (A) (A) (A) (A) (A) (A) (A) (A) (A) (A) (A)
                 (A) (A) (A) (A) (A) (A) (A) (A) (A) (A) (A) (A)
                 (A) (A) (A) (A) (A) (A) (A) (A) (A) (A) (A) (A)
                 (A) (A) (A) (A) (A) (A) (A) (A) (A) (A) (A) (A)
                 (A) (A) (A) (A) (A) (A) (A) (A) (A) (A) (A) (A)
                 (A) (A) (A) (A) (A) (A) (A) (A) (A) (A) (A) (A)
[...]
     4  O    0.001497   0.000003  -0.000028  -0.000009  -0.000013  -0.000124
     5  S    0.000134  -0.000000   0.000003   0.000000   0.000002  -0.000546
     6  C    0.000012  -0.000000  -0.000000  -0.000000  -0.000000  -0.000002
     7  C   -0.000057   0.000000  -0.000000   0.000000   0.000002  -0.005934
     8  H   -0.000000  -0.000000  -0.000000  -0.000000  -0.000000   0.000000
     9  H    0.000065  -0.000000  -0.000000  -0.000000  -0.000002   0.021489
    10  H   -0.000001  -0.000000   0.000000  -0.000000  -0.000000   0.000001
    11  H   -0.000002   0.000000  -0.000000   0.000000   0.000000   0.000757
    12  H    0.000000  -0.000000   0.000000   0.000000   0.000000  -0.000058
    13  H   -0.000005   0.000000  -0.000000   0.000000   0.000000  -0.000177
    14  O    0.002116   0.002835   0.002895   0.006351   0.006270  -0.000026
    15  S   -0.023254  -0.013767  -0.018881  -0.030062  -0.027596   0.000060
    16  C    0.004942   0.375507  -0.000491   0.386578  -0.008881  -0.000001
    17  C    0.392001  -0.001940   0.372255  -0.008019   0.384555  -0.000014
    18  H   -0.000141  -0.021325  -0.000176  -0.028030  -0.000372  -0.000000
    19  H    0.540297  -0.000300  -0.020731  -0.000281  -0.027882   0.000010
    20  H   -0.000300   0.551488  -0.000879  -0.019411   0.001342  -0.000000
    21  H   -0.020731  -0.000879   0.557794   0.001370  -0.018841  -0.000000
    22  H   -0.000281  -0.019411   0.001370   0.562166   0.007362  -0.000002
    23  H   -0.027882   0.001342  -0.018841   0.007362   0.562539  -0.000000
    24  O    0.000010  -0.000000  -0.000000  -0.000002  -0.000000   8.339107
    25  S    0.000000  -0.000000   0.000000  -0.000000  -0.000000   0.391344
    26  C   -0.000000  -0.000000  -0.000000  -0.000000  -0.000000  -0.042076
    27  C   -0.000000   0.000000   0.000000   0.000000   0.000000  -0.038300
    28  H   -0.000000   0.000000   0.000000   0.000000   0.000000   0.002107
    29  H    0.000000  -0.000000  -0.000000  -0.000000  -0.000000  -0.000873
    30  H   -0.000000   0.000000   0.000000   0.000000   0.000000   0.002247
    31  H   -0.000000   0.000000   0.000000   0.000000   0.000000   0.002746
    32  H    0.000000  -0.000000  -0.000000  -0.000000  -0.000000  -0.000100
    33  H   -0.000000   0.000000  -0.000000   0.000000   0.000000   0.002788
    34  O   -0.000002  -0.000137   0.000002   0.000116  -0.000017   0.000052
    35  S    0.000001   0.000028   0.000002   0.000051   0.000002  -0.000006
    36  C    0.000000  -0.000003   0.000000   0.000002   0.000000   0.000001
    37  C   -0.000001  -0.000001  -0.000001  -0.000002  -0.000000   0.000003
    38  H   -0.000000   0.000000  -0.000000  -0.000001  -0.000000   0.000000
    39  H   -0.000002   0.000009   0.000004   0.000005   0.000001  -0.000001
    40  H    0.000000  -0.000000   0.000000  -0.000000   0.000000   0.000000
    41  H   -0.000000  -0.000000  -0.000000   0.000000   0.000000   0.000000
    42  H    0.000000  -0.000000   0.000000   0.000001   0.000000   0.000001
    43  H   -0.000001   0.000001   0.000000   0.000001   0.000000   0.000012
              25         26         27         28         29         30
     1  Pb  -0.009833   0.000357  -0.013201  -0.000008  -0.001081  -0.000033
     2  Cl   0.001175  -0.000135  -0.013411   0.000004  -0.000185  -0.000016
     3  Cl   0.002627   0.000069  -0.020479   0.000003   0.025156   0.000003
     4  O   -0.000027  -0.000027   0.000010   0.000000   0.000008  -0.000000
     5  S    0.000077   0.000056  -0.000028  -0.000012  -0.000003  -0.000001
     6  C   -0.000004  -0.000009  -0.000002  -0.000002   0.000000  -0.000000
     7  C   -0.001129  -0.001831  -0.000310  -0.000944   0.000020  -0.000056
     8  H   -0.000000   0.000000  -0.000000  -0.000000  -0.000000   0.000000
     9  H   -0.000641  -0.003832   0.001026   0.001670  -0.000006   0.000247
    10  H   -0.000000   0.000001  -0.000000   0.000000   0.000000   0.000000
    11  H   -0.000209  -0.000063  -0.000004  -0.000027   0.000001   0.000012
    12  H    0.000016  -0.000008   0.000013   0.000001   0.000001  -0.000000
    13  H   -0.000111  -0.000547  -0.000414  -0.000105  -0.000006  -0.000012
    14  O   -0.000070   0.000000   0.000002  -0.000000   0.000017   0.000000
    15  S    0.000004  -0.000000  -0.000001  -0.000000   0.000001   0.000000
    16  C   -0.000000  -0.000000   0.000000  -0.000000  -0.000000   0.000000
    17  C   -0.000001  -0.000000  -0.000000   0.000000  -0.000000   0.000000
    18  H   -0.000000  -0.000000   0.000000  -0.000000   0.000000   0.000000
    19  H    0.000000  -0.000000  -0.000000  -0.000000   0.000000  -0.000000
    20  H   -0.000000  -0.000000   0.000000   0.000000  -0.000000   0.000000
    21  H    0.000000  -0.000000   0.000000   0.000000  -0.000000   0.000000
    22  H   -0.000000  -0.000000   0.000000   0.000000  -0.000000   0.000000
    23  H   -0.000000  -0.000000   0.000000   0.000000  -0.000000   0.000000
    24  O    0.391344  -0.042076  -0.038300   0.002107  -0.000873   0.002247
    25  S   14.660519   0.254404   0.262075  -0.021328  -0.022282  -0.008764
    26  C    0.254404   4.977504  -0.042003   0.387726   0.003502   0.382124
    27  C    0.262075  -0.042003   5.064306   0.004710   0.383170  -0.000465
    28  H   -0.021328   0.387726   0.004710   0.533857  -0.000141  -0.016766
    29  H   -0.022282   0.003502   0.383170  -0.000141   0.517839  -0.000165
    30  H   -0.008764   0.382124  -0.000465  -0.016766  -0.000165   0.522673
    31  H   -0.005394  -0.001852   0.374570  -0.000209  -0.016017  -0.000217
    32  H   -0.027309   0.398861  -0.007116  -0.027209   0.000083  -0.024498
    33  H   -0.033353  -0.010696   0.384532  -0.000079  -0.029325   0.001257
    34  O   -0.000001   0.000000  -0.000000  -0.000000   0.000027  -0.000000
    35  S   -0.000002  -0.000000  -0.000002   0.000000  -0.000002   0.000000
    36  C   -0.000000  -0.000000  -0.000003  -0.000000   0.000004  -0.000000
    37  C   -0.000000   0.000000  -0.000002  -0.000000   0.000001  -0.000000
    38  H   -0.000000  -0.000000   0.000002  -0.000000   0.000001  -0.000000
    39  H   -0.000000   0.000000  -0.000000   0.000000  -0.000000   0.000000
    40  H   -0.000000  -0.000000   0.000000  -0.000000   0.000000  -0.000000
    41  H   -0.000000   0.000000   0.000000  -0.000000  -0.000000  -0.000000
    42  H    0.000003   0.000000   0.000024  -0.000000   0.000012  -0.000000
    43  H    0.000002   0.000001   0.000016  -0.000000   0.000004  -0.000000
              31         32         33         34         35         36
     1  Pb   0.000334   0.000548  -0.000948  -0.009760  -0.004062  -0.006809
     2  Cl   0.000179   0.000313   0.020788  -0.000357   0.002425  -0.020127
     3  Cl   0.000346   0.000009  -0.001546  -0.001845  -0.001166   0.000269
     4  O    0.000000   0.000002  -0.000026  -0.000452  -0.001556  -0.000064
     5  S   -0.000000   0.000069   0.000020   0.000097   0.000177   0.000006
     6  C    0.000000   0.000018   0.000014  -0.000113   0.000103  -0.000027
     7  C    0.000037  -0.000971  -0.000327  -0.000024  -0.000008  -0.000006
     8  H    0.000000   0.000000   0.000000   0.000011   0.000015  -0.000001
     9  H   -0.000076  -0.001751   0.000336  -0.000001  -0.000001   0.000000
    10  H   -0.000000  -0.000000  -0.000001  -0.000001  -0.000002   0.000000
    11  H    0.000002   0.000771   0.000081  -0.000000  -0.000000   0.000000
    12  H   -0.000001  -0.000016  -0.000055  -0.000051   0.000134   0.000033
    13  H    0.000065   0.000054   0.000339  -0.000016  -0.000024   0.000023
    14  O    0.000000   0.000001   0.000003  -0.004341   0.000056  -0.000064
    15  S    0.000000   0.000000   0.000001   0.009503  -0.000502   0.000209
    16  C    0.000000   0.000000   0.000000  -0.011663   0.000231   0.000022
    17  C    0.000000  -0.000000   0.000000   0.000834  -0.000003   0.000001
    18  H   -0.000000  -0.000000   0.000000   0.017887  -0.001932  -0.000097
    19  H   -0.000000   0.000000  -0.000000  -0.000002   0.000001   0.000000
    20  H    0.000000  -0.000000   0.000000  -0.000137   0.000028  -0.000003
    21  H    0.000000  -0.000000  -0.000000   0.000002   0.000002   0.000000
    22  H    0.000000  -0.000000   0.000000   0.000116   0.000051   0.000002
    23  H    0.000000  -0.000000   0.000000  -0.000017   0.000002   0.000000
    24  O    0.002746  -0.000100   0.002788   0.000052  -0.000006   0.000001
    25  S   -0.005394  -0.027309  -0.033353  -0.000001  -0.000002  -0.000000
    26  C   -0.001852   0.398861  -0.010696   0.000000  -0.000000  -0.000000
    27  C    0.374570  -0.007116   0.384532  -0.000000  -0.000002  -0.000003
    28  H   -0.000209  -0.027209  -0.000079  -0.000000   0.000000  -0.000000
    29  H   -0.016017   0.000083  -0.029325   0.000027  -0.000002   0.000004
    30  H   -0.000217  -0.024498   0.001257  -0.000000   0.000000  -0.000000
    31  H    0.522906   0.000783  -0.020038   0.000000  -0.000000   0.000000
    32  H    0.000783   0.551174   0.005288   0.000000  -0.000000   0.000000
    33  H   -0.020038   0.005288   0.553405   0.000008  -0.000008   0.000012
    34  O    0.000000   0.000000   0.000008   8.379981   0.351794  -0.031390
    35  S   -0.000000  -0.000000  -0.000008   0.351794  14.670817   0.273621
    36  C    0.000000   0.000000   0.000012  -0.031390   0.273621   4.966713
    37  C    0.000000   0.000000   0.000017  -0.034552   0.272285  -0.037889
    38  H   -0.000000  -0.000000  -0.000002   0.001679  -0.019993   0.385173
    39  H   -0.000000  -0.000000   0.000000   0.000579  -0.019832   0.004240
    40  H    0.000000   0.000000   0.000000   0.002774  -0.013018   0.371597
    41  H    0.000000   0.000000  -0.000000   0.002741  -0.012543  -0.000210
    42  H   -0.000001   0.000000   0.000049   0.001893  -0.027942   0.386093
    43  H    0.000000   0.000000  -0.000038   0.002680  -0.030119  -0.010382
              37         38         39         40         41         42
     1  Pb  -0.008142   0.001958   0.002007   0.000135  -0.000294  -0.006251
     2  Cl  -0.023596   0.000128   0.000041   0.000272   0.000381   0.027629
     3  Cl  -0.000033   0.003390  -0.000010   0.000097  -0.000001   0.001100
     4  O   -0.000309  -0.000001   0.008841  -0.000001   0.000435  -0.000106
     5  S   -0.001091  -0.000000   0.000553  -0.000000  -0.000004   0.000005
     6  C   -0.000101   0.000001  -0.001100   0.000001  -0.000119  -0.000001
     7  C   -0.000044   0.000000   0.000283   0.000000  -0.000000   0.000024
     8  H   -0.000416  -0.000000   0.000746   0.000000   0.000174  -0.000005
     9  H    0.000001  -0.000000  -0.000010   0.000000  -0.000001   0.000006
    10  H   -0.000053   0.000000   0.000064   0.000000   0.000002  -0.000004
    11  H   -0.000001   0.000000  -0.000016   0.000000  -0.000000   0.000000
    12  H   -0.003043   0.000001  -0.000526  -0.000003   0.000255   0.000003
    13  H    0.000048   0.000000  -0.000000  -0.000000   0.000005  -0.000089
    14  O   -0.000038   0.000004  -0.000133  -0.000001  -0.000002  -0.000052
    15  S   -0.000499  -0.000029   0.001234  -0.000005   0.000038   0.000033
    16  C   -0.000086  -0.000026   0.000019   0.000002   0.000005   0.000017
    17  C   -0.000002  -0.000000   0.000013  -0.000000   0.000000  -0.000000
    18  H    0.000352   0.000126  -0.000026  -0.000004  -0.000025  -0.000051
    19  H   -0.000001  -0.000000  -0.000002   0.000000  -0.000000   0.000000
    20  H   -0.000001   0.000000   0.000009  -0.000000  -0.000000  -0.000000
    21  H   -0.000001  -0.000000   0.000004   0.000000  -0.000000   0.000000
    22  H   -0.000002  -0.000001   0.000005  -0.000000   0.000000   0.000001
    23  H   -0.000000  -0.000000   0.000001   0.000000   0.000000   0.000000
    24  O    0.000003   0.000000  -0.000001   0.000000   0.000000   0.000001
    25  S   -0.000000  -0.000000  -0.000000  -0.000000  -0.000000   0.000003
    26  C    0.000000  -0.000000   0.000000  -0.000000   0.000000   0.000000
    27  C   -0.000002   0.000002  -0.000000   0.000000   0.000000   0.000024
    28  H   -0.000000  -0.000000   0.000000  -0.000000  -0.000000  -0.000000
    29  H    0.000001   0.000001  -0.000000   0.000000  -0.000000   0.000012
    30  H   -0.000000  -0.000000   0.000000  -0.000000  -0.000000  -0.000000
    31  H    0.000000  -0.000000  -0.000000   0.000000   0.000000  -0.000001
    32  H    0.000000  -0.000000  -0.000000   0.000000   0.000000   0.000000
    33  H    0.000017  -0.000002   0.000000   0.000000  -0.000000   0.000049
    34  O   -0.034552   0.001679   0.000579   0.002774   0.002741   0.001893
    35  S    0.272285  -0.019993  -0.019832  -0.013018  -0.012543  -0.027942
    36  C   -0.037889   0.385173   0.004240   0.371597  -0.000210   0.386093
    37  C    5.002240   0.004533   0.379748   0.000361   0.373555  -0.010840
    38  H    0.004533   0.540761  -0.000142  -0.019253  -0.000337  -0.028757
    39  H    0.379748  -0.000142   0.545194  -0.000262  -0.018579  -0.000058
    40  H    0.000361  -0.019253  -0.000262   0.547666  -0.000872  -0.021327
    41  H    0.373555  -0.000337  -0.018579  -0.000872   0.534803   0.001256
    42  H   -0.010840  -0.028757  -0.000058  -0.021327   0.001256   0.550861
    43  H    0.381372   0.000025  -0.033066   0.001039  -0.020901   0.005186
              43
     1  Pb  -0.009140
     2  Cl   0.028339
     3  Cl  -0.000163
     4  O    0.001439
     5  S    0.000047
     6  C   -0.004087
     7  C   -0.000140
     8  H   -0.000458
     9  H   -0.000027
    10  H    0.000148
    11  H    0.000023
    12  H   -0.001305
    13  H    0.000137
    14  O   -0.000078
    15  S    0.000130
    16  C   -0.000001
    17  C   -0.000003
    18  H   -0.000023
    19  H   -0.000001
    20  H    0.000001
    21  H    0.000000
    22  H    0.000001
    23  H    0.000000
    24  O    0.000012
    25  S    0.000002
    26  C    0.000001
    27  C    0.000016
    28  H   -0.000000
    29  H    0.000004
    30  H   -0.000000
    31  H    0.000000
    32  H    0.000000
    33  H   -0.000038
    34  O    0.002680
    35  S   -0.030119
    36  C   -0.010382
    37  C    0.381372
    38  H    0.000025
    39  H   -0.033066
    40  H    0.001039
    41  H   -0.020901
    42  H    0.005186
    43  H    0.576063
 Mulliken charges:
               1
     1  Pb   1.269929
     2  Cl  -0.775522
     3  Cl  -0.800611
     4  O   -0.662148
     5  S    0.556617
     6  C   -0.308035
     7  C   -0.346457
     8  H    0.133622
     9  H    0.135793
    10  H    0.141129
    11  H    0.142372
    12  H    0.134932
    13  H    0.128472
    14  O   -0.692298
    15  S    0.585494
    16  C   -0.276998
    17  C   -0.274537
    18  H    0.134425
    19  H    0.131303
    20  H    0.126181
    21  H    0.125604
    22  H    0.120956
    23  H    0.121110
    24  O   -0.663920
    25  S    0.558213
    26  C   -0.301527
    27  C   -0.338715
    28  H    0.136751
    29  H    0.140240
    30  H    0.142433
    31  H    0.141836
    32  H    0.130995
    33  H    0.127502
    34  O   -0.677935
    35  S    0.560984
    36  C   -0.280950
    37  C   -0.293776
    38  H    0.130760
    39  H    0.130182
    40  H    0.130803
    41  H    0.140236
    42  H    0.121290
    43  H    0.113265
 Sum of Mulliken charges =  -0.00000
 Mulliken charges with hydrogens summed into heavy atoms:
               1
     1  Pb   1.269929
     2  Cl  -0.775522
     3  Cl  -0.800611
     4  O   -0.662148
     5  S    0.556617
     6  C    0.101648
     7  C    0.060181
    14  O   -0.692298
    15  S    0.585494
    16  C    0.104564
    17  C    0.103480
    24  O   -0.663920
    25  S    0.558213
    26  C    0.108652
    27  C    0.070863
    34  O   -0.677935
    35  S    0.560984
    36  C    0.101903
    37  C    0.089907
 Electronic spatial extent (au):  <R**2>=           9772.4229
 Charge=              0.0000 electrons
 Dipole moment (field-independent basis, Debye):
    X=             -3.5233    Y=              7.7749    Z=             12.4690  Tot=             15.1109
 Quadrupole moment (field-independent basis, Debye-Ang):
   XX=           -101.3639   YY=           -169.2610   ZZ=           -165.8350
   XY=             -1.3974   XZ=              7.4928   YZ=             -8.2912
 Traceless Quadrupole moment (field-independent basis, Debye-Ang):
   XX=             44.1227   YY=            -23.7744   ZZ=            -20.3484
   XY=             -1.3974   XZ=              7.4928   YZ=             -8.2912
 Octapole moment (field-independent basis, Debye-Ang**2):
  XXX=             99.1202  YYY=             34.2257  ZZZ=             56.4072  XYY=            -73.1110
  XXY=            -54.3599  XXZ=             28.8883  XZZ=            -57.7642  YZZ=             19.6263
  YYZ=             96.9837  XYZ=             81.0005
 Hexadecapole moment (field-independent basis, Debye-Ang**3):
 XXXX=          -4535.0868 YYYY=          -3477.8138 ZZZZ=          -3348.3219 XXXY=            -10.1139
 XXXZ=            -71.7097 YYYX=             -7.8498 YYYZ=             43.7553 ZZZX=             69.3905
 ZZZY=           -172.8975 XXYY=          -1406.3722 XXZZ=          -1294.3094 YYZZ=          -1168.5928
 XXYZ=            -79.4392 YYXZ=             54.1954 ZZXY=             28.4963
 N-N= 2.567999168846D+03 E-N=-1.256770490392D+04  KE= 3.122227789990D+03
 Unable to Open any file for archive entry.
 1\1\GINC-MPCL001\SP\RCAM-B3LYP TD-FC\Gen\C8H24Cl2O4Pb1S4\EDBA4025\17-A
 pr-2021\0\\# cam-b3lyp/gen pseudo=read TD=NStates=10 Geom=Check Guess=
 Read empiricaldispersion=gd3bj SCRF=(Solvent=DMSO)\\PbCl2_dmso\\0,1\Pb
 ,0,0.1285156513,-0.3332299865,-0.2922367753\Cl,0,1.1680533109,2.126989
 4046,-1.6474598836\Cl,0,0.3285202764,-2.2196803156,-2.3601520823\O,0,-
 0.6203199831,1.1869561291,1.6387230589\S,0,0.2519741384,2.2221607315,2
 .4488557231\C,0,0.1005330909,3.816316515,1.5623162975\C,0,1.9926444334
 ,1.8863549299,1.9967072639\H,0,-0.9514314562,4.1401552138,1.6618880884
 \H,0,2.1872000167,0.8278830412,2.2507639164\H,0,0.7727961901,4.5443816
 891,2.05607013\H,0,2.6398411556,2.5678450347,2.5813146971\H,0,0.381647
 8555,3.6464314442,0.5036382648\H,0,2.0990680703,2.0438277173,0.9041579
 966\O,0,-1.0576539811,-1.8400850784,1.1527077028\S,0,-2.4458233115,-1.
 3362031281,1.7408776926\C,0,-3.67298285,-2.3913902904,0.9044618471\C,0
 ,-2.4725241241,-2.1208345066,3.3845762727\H,0,-3.669358544,-2.03839371
 51,-0.1425946957\H,0,-1.6983363941,-1.6067548782,3.9826890128\H,0,-4.6
 636530614,-2.2344895055,1.3725549106\H,0,-3.4706827754,-1.9709625027,3
 .8384465027\H,0,-3.3445502418,-3.4447904666,0.9810362551\H,0,-2.233444
 1146,-3.1943988436,3.2681541557\O,0,2.2815242067,-1.1766524799,0.88092
 69648\S,0,3.685417352,-1.4656683991,0.2197632772\C,0,4.8198078343,-0.1
 885561286,0.8788530695\C,0,3.5925164155,-0.8358053528,-1.4941599886\H,
 0,4.8807359827,-0.3520871951,1.9701488715\H,0,2.8581592597,-1.47841590
 77,-2.0203800835\H,0,5.8125770097,-0.3385608872,0.4130094725\H,0,4.599
 1819889,-0.9224487366,-1.9461219465\H,0,4.4155503942,0.8144569301,0.64
 76272524\H,0,3.2339498679,0.2140844814,-1.473631057\O,0,-2.2320551717,
 -0.150712116,-0.935955518\S,0,-2.9700087659,1.0399779322,-1.6786421291
 \C,0,-2.0712021258,1.23551773,-3.2553273118\C,0,-2.3970875411,2.564700
 5785,-0.8575069425\H,0,-2.2229302945,0.2944668144,-3.8144345323\H,0,-2
 .6659905628,2.45258943,0.2080074094\H,0,-2.5147946981,2.0889189275,-3.
 8030795514\H,0,-2.9278181765,3.4205040253,-1.3168384792\H,0,-0.9995722
 639,1.4080422197,-3.0248644798\H,0,-1.2978840636,2.6379695005,-0.98264
 06492\\Version=ES64L-G16RevC.01\State=1-A\HF=-3137.0666351\RMSD=4.115e
 -09\PG=C01 [X(C8H24Cl2O4Pb1S4)]\\@
 The archive entry for this job was punched.


 DO YOU KNOW THAT THE LETTERS IN "EPISCOPAL", WHEN
 REARRANGED, SPELL "PEPSI COLA"?
 Job cpu time:       0 days 12 hours 23 minutes 22.4 seconds.
 Elapsed time:       0 days  2 hours 28 minutes 41.7 seconds.
 File lengths (MBytes):  RWF=   3790 Int=      0 D2E=      0 Chk=    536 Scr=      1
 Normal termination of Gaussian 16 at Sat Apr 17 17:46:49 2021.
