 Entering Gaussian System, Link 0=g16
 Input=02-PbCl2_gbl_23593090.com
 Output=02-PbCl2_gbl_23593090.log
 Initial command:
 /cm/shared/uniol/software/gaussian/g16.c01/g16/l1.exe "/scratch/23593090_edba4025/Gau-3217.inp" -scrdir="/scratch/23593090_edba4025/"
 Entering Link 1 = /cm/shared/uniol/software/gaussian/g16.c01/g16/l1.exe PID=      3218.
  
 Copyright (c) 1988-2019, Gaussian, Inc.  All Rights Reserved.
  
 This is part of the Gaussian(R) 16 program.  It is based on
 the Gaussian(R) 09 system (copyright 2009, Gaussian, Inc.),
 the Gaussian(R) 03 system (copyright 2003, Gaussian, Inc.),
 the Gaussian(R) 98 system (copyright 1998, Gaussian, Inc.),
 the Gaussian(R) 94 system (copyright 1995, Gaussian, Inc.),
 the Gaussian 92(TM) system (copyright 1992, Gaussian, Inc.),
 the Gaussian 90(TM) system (copyright 1990, Gaussian, Inc.),
 the Gaussian 88(TM) system (copyright 1988, Gaussian, Inc.),
 the Gaussian 86(TM) system (copyright 1986, Carnegie Mellon
 University), and the Gaussian 82(TM) system (copyright 1983,
 Carnegie Mellon University). Gaussian is a federally registered
 trademark of Gaussian, Inc.
  
 This software contains proprietary and confidential information,
 including trade secrets, belonging to Gaussian, Inc.
  
 This software is provided under written license and may be
 used, copied, transmitted, or stored only in accord with that
 written license.
  
 The following legend is applicable only to US Government
 contracts under FAR:
  
                    RESTRICTED RIGHTS LEGEND
  
 Use, reproduction and disclosure by the US Government is
 subject to restrictions as set forth in subparagraphs (a)
 and (c) of the Commercial Computer Software - Restricted
 Rights clause in FAR 52.227-19.
  
 Gaussian, Inc.
 340 Quinnipiac St., Bldg. 40, Wallingford CT 06492
  
  
 ---------------------------------------------------------------
 Warning -- This program may not be used in any manner that
 competes with the business of Gaussian, Inc. or will provide
 assistance to any competitor of Gaussian, Inc.  The licensee
 of this program is prohibited from giving any competitor of
 Gaussian, Inc. access to this program.  By using this program,
 the user acknowledges that Gaussian, Inc. is engaged in the
 business of creating and licensing software in the field of
 computational chemistry and represents and warrants to the
 licensee that it is not a competitor of Gaussian, Inc. and that
 it will not use this program in any manner prohibited above.
 ---------------------------------------------------------------
  

 Cite this work as:
 Gaussian 16, Revision C.01,
 M. J. Frisch, G. W. Trucks, H. B. Schlegel, G. E. Scuseria, 
 M. A. Robb, J. R. Cheeseman, G. Scalmani, V. Barone, 
 G. A. Petersson, H. Nakatsuji, X. Li, M. Caricato, A. V. Marenich, 
 J. Bloino, B. G. Janesko, R. Gomperts, B. Mennucci, H. P. Hratchian, 
 J. V. Ortiz, A. F. Izmaylov, J. L. Sonnenberg, D. Williams-Young, 
 F. Ding, F. Lipparini, F. Egidi, J. Goings, B. Peng, A. Petrone, 
 T. Henderson, D. Ranasinghe, V. G. Zakrzewski, J. Gao, N. Rega, 
 G. Zheng, W. Liang, M. Hada, M. Ehara, K. Toyota, R. Fukuda, 
 J. Hasegawa, M. Ishida, T. Nakajima, Y. Honda, O. Kitao, H. Nakai, 
 T. Vreven, K. Throssell, J. A. Montgomery, Jr., J. E. Peralta, 
 F. Ogliaro, M. J. Bearpark, J. J. Heyd, E. N. Brothers, K. N. Kudin, 
 V. N. Staroverov, T. A. Keith, R. Kobayashi, J. Normand, 
 K. Raghavachari, A. P. Rendell, J. C. Burant, S. S. Iyengar, 
 J. Tomasi, M. Cossi, J. M. Millam, M. Klene, C. Adamo, R. Cammi, 
 J. W. Ochterski, R. L. Martin, K. Morokuma, O. Farkas, 
 J. B. Foresman, and D. J. Fox, Gaussian, Inc., Wallingford CT, 2019.
 
 ******************************************
 Gaussian 16:  ES64L-G16RevC.01  3-Jul-2019
                15-Apr-2021 
 ******************************************
 %oldChk=01-PbCl2_gbl
 %chk=02-PbCl2_gbl
 %mem=16GB
 %NProcShared=5
 Will use up to    5 processors via shared memory.
 Copying data from "01-PbCl2_gbl.chk" to current chk file "02-PbCl2_gbl.chk"
 IOpt=  2 FromEx=T IUOpen= 4 IOptOp= 5 NList=   0 IFRang= 0 IUIn= 4 IUOut= 2.
 ----------------------------------------------------------------------
 # cam-b3lyp/gen pseudo=read TD=NStates=10 Geom=Check Guess=Read empiri
 caldispersion=gd3bj SCRF=(read)
 ----------------------------------------------------------------------
 1/29=2,38=1,40=2,172=1/1;
 2/12=2,40=1/2;
 3/5=7,11=9,14=-4,16=1,17=8,25=1,30=1,70=2203,74=-40,116=-2,124=41/1,2,3,8;
 4/5=1/1;
 5/5=2,38=6/2;
 8/6=1,10=1,108=10/1;
 9/41=10,42=1,70=2/14;
 6/7=2,8=2,9=2,10=2/1;
 99/5=1,9=1/99;
 ---------
 PbCl2_gbl
 ---------
 Structure from the checkpoint file:  "02-PbCl2_gbl.chk"
 Charge =  0 Multiplicity = 1
 Redundant internal coordinates found in file.  (old form).
 Pb,0,-0.0031559107,-0.6342964915,0.1606765315
 Cl,0,1.4011012328,1.0820154149,1.6901124545
 Cl,0,-1.5162596874,-1.3780532681,2.201367964
 O,0,1.4193295318,0.6476045742,-1.9418817839
 C,0,1.8908832996,1.7641786872,-1.7360205644
 C,0,1.1805714276,3.0574417951,-1.3970286849
 O,0,3.2344417217,1.9608930454,-1.7679300538
 C,0,2.2385163381,4.1228384499,-1.6948649044
 C,0,3.5349132343,3.3520752124,-1.4235061803
 H,0,4.3964479157,3.66175707,-2.041525292
 H,0,3.8215104493,3.3708640666,-0.3518184851
 H,0,2.1532653938,5.026260495,-1.0640380547
 H,0,2.1911327512,4.4317620824,-2.7580647494
 H,0,0.9533610248,2.9929632452,-0.3101163422
 H,0,0.2233573459,3.1465325017,-1.93907391
 O,0,-1.7813285656,-2.1620035284,-1.3688495156
 C,0,-3.0063300074,-2.1125594405,-1.2834555362
 C,0,-3.8812689127,-1.0297140257,-0.6871907032
 O,0,-3.7677549752,-3.1342874277,-1.7503402715
 C,0,-5.2724175845,-1.3570294611,-1.2365679538
 C,0,-5.1784800081,-2.8704395084,-1.4619754318
 H,0,-5.7615438601,-3.2449555078,-2.3222910444
 H,0,-5.4451236998,-3.4530764392,-0.5561215733
 H,0,-6.0977596004,-1.0911588024,-0.5514632227
 H,0,-5.4380700992,-0.8367632783,-2.2006506968
 H,0,-3.8095787424,-1.136951102,0.4175485137
 H,0,-3.484116099,-0.0311624298,-0.9430903186
 O,0,-1.5297917362,1.3774730648,-0.3786618946
 C,0,-1.8725767119,2.2939395421,0.3787623026
 C,0,-1.976286196,2.3071332084,1.8828253628
 O,0,-2.1988242241,3.4942370423,-0.1399581882
 C,0,-2.8278914706,3.5497376165,2.1597992254
 C,0,-2.5095398939,4.4314841013,0.9479678504
 H,0,-3.346301063,5.0615815448,0.5986480166
 H,0,-1.6089356731,5.0606256683,1.0986363316
 H,0,-2.5827590223,4.0531662664,3.1122237193
 H,0,-3.9039522564,3.2865095028,2.1699326418
 H,0,-0.9337643502,2.3939846396,2.2634593173
 H,0,-2.3697168881,1.3430734366,2.2543123232
 O,0,1.8133473717,-2.3820738012,0.8505978157
 C,0,3.0097418138,-2.2355068308,0.5807006611
 C,0,3.6943609409,-1.117735364,-0.1727195312
 O,0,3.9061882562,-3.1544064786,0.9969932725
 C,0,5.066258453,-1.7116909485,-0.5052447996
 C,0,5.2595840168,-2.7256600033,0.6266419557
 H,0,5.8182941398,-3.6353047228,0.3437184724
 H,0,5.7184288777,-2.2764610473,1.5309510244
 H,0,5.878613322,-0.9634029243,-0.5355599991
 H,0,5.0333686254,-2.2314170239,-1.483060188
 H,0,3.7493364516,-0.2503722348,0.5209928955
 H,0,3.0915633025,-0.7868101835,-1.0394187781
 Recover connectivity data from disk.
                           ----------------------------
                           !    Current Parameters    !
                           ! (Angstroms and Degrees)  !
 --------------------------                            --------------------------
 ! Name  Definition              Value                                          !
 --------------------------------------------------------------------------------
 ! R1    R(1,2)                  2.6939                                         !
 ! R2    R(1,3)                  2.6471                                         !
 ! R3    R(1,28)                 2.5824                                         !
 ! R4    R(1,40)                 2.6135                                         !
 ! R5    R(4,5)                  1.2294                                         !
 ! R6    R(4,51)                 2.3808                                         !
 ! R7    R(5,6)                  1.5139                                         !
 ! R8    R(5,7)                  1.3583                                         !
 ! R9    R(6,8)                  1.5307                                         !
 ! R10   R(6,14)                 1.1123                                         !
 ! R11   R(6,15)                 1.1036                                         !
 ! R12   R(7,9)                  1.4643                                         !
 ! R13   R(8,9)                  1.5324                                         !
 ! R14   R(8,12)                 1.1052                                         !
 ! R15   R(8,13)                 1.1082                                         !
 ! R16   R(9,10)                 1.1046                                         !
 ! R17   R(9,11)                 1.1095                                         !
 ! R18   R(16,17)                1.229                                          !
 ! R19   R(17,18)                1.5145                                         !
 ! R20   R(17,19)                1.3571                                         !
 ! R21   R(18,20)                1.5311                                         !
 ! R22   R(18,26)                1.1122                                         !
 ! R23   R(18,27)                1.1047                                         !
 ! R24   R(19,21)                1.4639                                         !
 ! R25   R(20,21)                1.533                                          !
 ! R26   R(20,24)                1.1051                                         !
 ! R27   R(20,25)                1.108                                          !
 ! R28   R(21,22)                1.1047                                         !
 ! R29   R(21,23)                1.1096                                         !
 ! R30   R(27,28)                2.4743                                         !
 ! R31   R(28,29)                1.2374                                         !
 ! R32   R(29,30)                1.5077                                         !
 ! R33   R(29,31)                1.3477                                         !
 ! R34   R(30,32)                1.5317                                         !
 ! R35   R(30,38)                1.1132                                         !
 ! R36   R(30,39)                1.1055                                         !
 ! R37   R(31,33)                1.4692                                         !
 ! R38   R(32,33)                1.5321                                         !
 ! R39   R(32,36)                1.1048                                         !
 ! R40   R(32,37)                1.1078                                         !
 ! R41   R(33,34)                1.1042                                         !
 ! R42   R(33,35)                1.1089                                         !
 ! R43   R(40,41)                1.2352                                         !
 ! R44   R(41,42)                1.5119                                         !
 ! R45   R(41,43)                1.3496                                         !
 ! R46   R(42,44)                1.5315                                         !
 ! R47   R(42,50)                1.112                                          !
 ! R48   R(42,51)                1.1064                                         !
 ! R49   R(43,45)                1.4672                                         !
 ! R50   R(44,45)                1.5319                                         !
 ! R51   R(44,48)                1.1049                                         !
 ! R52   R(44,49)                1.1078                                         !
 ! R53   R(45,46)                1.1044                                         !
 ! R54   R(45,47)                1.1091                                         !
 ! A1    A(2,1,3)               92.2519                                         !
 ! A2    A(2,1,28)              86.0092                                         !
 ! A3    A(2,1,40)              85.0597                                         !
 ! A4    A(3,1,28)              92.4057                                         !
 ! A5    A(3,1,40)              90.3372                                         !
 ! A6    A(5,4,51)             102.3751                                         !
 ! A7    A(4,5,6)              129.2989                                         !
 ! A8    A(4,5,7)              120.4647                                         !
 ! A9    A(6,5,7)              110.2214                                         !
 ! A10   A(5,6,8)              103.1043                                         !
 ! A11   A(5,6,14)             105.3747                                         !
 ! A12   A(5,6,15)             111.4642                                         !
 ! A13   A(8,6,14)             111.8188                                         !
 ! A14   A(8,6,15)             116.5966                                         !
 ! A15   A(14,6,15)            107.9057                                         !
 ! A16   A(5,7,9)              109.5749                                         !
 ! A17   A(6,8,9)              101.5467                                         !
 ! A18   A(6,8,12)             113.8654                                         !
 ! A19   A(6,8,13)             110.5578                                         !
 ! A20   A(9,8,12)             112.045                                          !
 ! A21   A(9,8,13)             110.2594                                         !
 ! A22   A(12,8,13)            108.4485                                         !
 ! A23   A(7,9,8)              105.2245                                         !
 ! A24   A(7,9,10)             107.1454                                         !
 ! A25   A(7,9,11)             107.2344                                         !
 ! A26   A(8,9,10)             114.8183                                         !
 ! A27   A(8,9,11)             112.3985                                         !
 ! A28   A(10,9,11)            109.5247                                         !
 ! A29   A(16,17,18)           129.1963                                         !
 ! A30   A(16,17,19)           120.3358                                         !
 ! A31   A(18,17,19)           110.4641                                         !
 ! A32   A(17,18,20)           103.3439                                         !
 ! A33   A(17,18,26)           106.5518                                         !
 ! A34   A(17,18,27)           110.3287                                         !
 ! A35   A(20,18,26)           113.2251                                         !
 ! A36   A(20,18,27)           115.8985                                         !
 ! A37   A(26,18,27)           107.1016                                         !
 ! A38   A(17,19,21)           109.7084                                         !
 ! A39   A(18,20,21)           102.0129                                         !
 ! A40   A(18,20,24)           113.8728                                         !
 ! A41   A(18,20,25)           110.3455                                         !
 ! A42   A(21,20,24)           111.9894                                         !
 ! A43   A(21,20,25)           110.1692                                         !
 ! A44   A(24,20,25)           108.3493                                         !
 ! A45   A(19,21,20)           105.4238                                         !
 ! A46   A(19,21,22)           107.1051                                         !
 ! A47   A(19,21,23)           107.3235                                         !
 ! A48   A(20,21,22)           114.6364                                         !
 ! A49   A(20,21,23)           112.5587                                         !
 ! A50   A(22,21,23)           109.3257                                         !
 ! A51   A(18,27,28)           138.2219                                         !
 ! A52   A(1,28,27)             94.0754                                         !
 ! A53   A(1,28,29)            127.801                                          !
 ! A54   A(27,28,29)           110.0282                                         !
 ! A55   A(28,29,30)           129.5079                                         !
 ! A56   A(28,29,31)           119.4139                                         !
 ! A57   A(30,29,31)           111.0712                                         !
 ! A58   A(29,30,32)           103.0464                                         !
 ! A59   A(29,30,38)           106.1028                                         !
 ! A60   A(29,30,39)           110.6137                                         !
 ! A61   A(32,30,38)           113.3009                                         !
 ! A62   A(32,30,39)           116.6685                                         !
 ! A63   A(38,30,39)           106.6432                                         !
 ! A64   A(29,31,33)           109.533                                          !
 ! A65   A(30,32,33)           102.025                                          !
 ! A66   A(30,32,36)           113.7154                                         !
 ! A67   A(30,32,37)           110.4226                                         !
 ! A68   A(33,32,36)           111.9321                                         !
 ! A69   A(33,32,37)           110.231                                          !
 ! A70   A(36,32,37)           108.4147                                         !
 ! A71   A(31,33,32)           105.2185                                         !
 ! A72   A(31,33,34)           106.8602                                         !
 ! A73   A(31,33,35)           106.9053                                         !
 ! A74   A(32,33,34)           114.909                                          !
 ! A75   A(32,33,35)           112.8186                                         !
 ! A76   A(34,33,35)           109.554                                          !
 ! A77   A(1,40,41)            122.424                                          !
 ! A78   A(40,41,42)           129.4367                                         !
 ! A79   A(40,41,43)           119.6827                                         !
 ! A80   A(42,41,43)           110.875                                          !
 ! A81   A(41,42,44)           103.1269                                         !
 ! A82   A(41,42,50)           106.749                                          !
 ! A83   A(41,42,51)           111.3955                                         !
 ! A84   A(44,42,50)           113.1829                                         !
 ! A85   A(44,42,51)           115.7205                                         !
 ! A86   A(50,42,51)           106.3992                                         !
 ! A87   A(41,43,45)           109.6271                                         !
 ! A88   A(42,44,45)           102.0829                                         !
 ! A89   A(42,44,48)           113.6983                                         !
 ! A90   A(42,44,49)           110.3033                                         !
 ! A91   A(45,44,48)           112.0716                                         !
 ! A92   A(45,44,49)           110.2052                                         !
 ! A93   A(48,44,49)           108.3809                                         !
 ! A94   A(43,45,44)           105.2791                                         !
 ! A95   A(43,45,46)           106.896                                          !
 ! A96   A(43,45,47)           107.1073                                         !
 ! A97   A(44,45,46)           114.8188                                         !
 ! A98   A(44,45,47)           112.7421                                         !
 ! A99   A(46,45,47)           109.4619                                         !
 ! A100  A(4,51,42)            149.2982                                         !
 ! A101  L(28,1,40,2,-1)       171.0689                                         !
 ! A102  L(28,1,40,2,-2)       182.4001                                         !
 ! D1    D(2,1,28,27)         -155.9832                                         !
 ! D2    D(2,1,28,29)          -36.655                                          !
 ! D3    D(3,1,28,27)          -63.8919                                         !
 ! D4    D(3,1,28,29)           55.4363                                         !
 ! D5    D(2,1,40,41)          -60.7996                                         !
 ! D6    D(3,1,40,41)         -153.0308                                         !
 ! D7    D(51,4,5,6)          -145.5888                                         !
 ! D8    D(51,4,5,7)            32.8523                                         !
 ! D9    D(5,4,51,42)           59.5457                                         !
 ! D10   D(4,5,6,8)           -163.0739                                         !
 ! D11   D(4,5,6,14)            79.553                                          !
 ! D12   D(4,5,6,15)           -37.2382                                         !
 ! D13   D(7,5,6,8)             18.358                                          !
 ! D14   D(7,5,6,14)           -99.0151                                         !
 ! D15   D(7,5,6,15)           144.1936                                         !
 ! D16   D(4,5,7,9)           -177.0585                                         !
 ! D17   D(6,5,7,9)              1.656                                          !
 ! D18   D(5,6,8,9)            -29.2837                                         !
 ! D19   D(5,6,8,12)          -149.9003                                         !
 ! D20   D(5,6,8,13)            87.7221                                         !
 ! D21   D(14,6,8,9)            83.4484                                         !
 ! D22   D(14,6,8,12)          -37.1682                                         !
 ! D23   D(14,6,8,13)         -159.5458                                         !
 ! D24   D(15,6,8,9)          -151.7442                                         !
 ! D25   D(15,6,8,12)           87.6391                                         !
 ! D26   D(15,6,8,13)          -34.7385                                         !
 ! D27   D(5,7,9,8)            -21.1679                                         !
 ! D28   D(5,7,9,10)          -143.7972                                         !
 ! D29   D(5,7,9,11)            98.6929                                         !
 ! D30   D(6,8,9,7)             31.0565                                         !
 ! D31   D(6,8,9,10)           148.6029                                         !
 ! D32   D(6,8,9,11)           -85.3207                                         !
 ! D33   D(12,8,9,7)           152.9437                                         !
 ! D34   D(12,8,9,10)          -89.51                                           !
 ! D35   D(12,8,9,11)           36.5665                                         !
 ! D36   D(13,8,9,7)           -86.1661                                         !
 ! D37   D(13,8,9,10)           31.3802                                         !
 ! D38   D(13,8,9,11)          157.4567                                         !
 ! D39   D(16,17,18,20)        164.3972                                         !
 ! D40   D(16,17,18,26)        -76.045                                          !
 ! D41   D(16,17,18,27)         39.8842                                         !
 ! D42   D(19,17,18,20)        -16.3177                                         !
 ! D43   D(19,17,18,26)        103.2402                                         !
 ! D44   D(19,17,18,27)       -140.8306                                         !
 ! D45   D(16,17,19,21)        176.7287                                         !
 ! D46   D(18,17,19,21)         -2.6295                                         !
 ! D47   D(17,18,20,21)         27.1014                                         !
 ! D48   D(17,18,20,24)        147.9525                                         !
 ! D49   D(17,18,20,25)        -89.9555                                         !
 ! D50   D(26,18,20,21)        -87.758                                          !
 ! D51   D(26,18,20,24)         33.0931                                         !
 ! D52   D(26,18,20,25)        155.1852                                         !
 ! D53   D(27,18,20,21)        147.9036                                         !
 ! D54   D(27,18,20,24)        -91.2453                                         !
 ! D55   D(27,18,20,25)         30.8467                                         !
 ! D56   D(17,18,27,28)        -69.5271                                         !
 ! D57   D(20,18,27,28)        173.5053                                         !
 ! D58   D(26,18,27,28)         46.0576                                         !
 ! D59   D(17,19,21,20)         20.6579                                         !
 ! D60   D(17,19,21,22)        143.1612                                         !
 ! D61   D(17,19,21,23)        -99.536                                          !
 ! D62   D(18,20,21,19)        -29.3619                                         !
 ! D63   D(18,20,21,22)       -146.8908                                         !
 ! D64   D(18,20,21,23)         87.3236                                         !
 ! D65   D(24,20,21,19)       -151.5133                                         !
 ! D66   D(24,20,21,22)         90.9579                                         !
 ! D67   D(24,20,21,23)        -34.8278                                         !
 ! D68   D(25,20,21,19)         87.822                                          !
 ! D69   D(25,20,21,22)        -29.7068                                         !
 ! D70   D(25,20,21,23)       -155.4925                                         !
 ! D71   D(18,27,28,1)          26.8279                                         !
 ! D72   D(18,27,28,29)       -106.0158                                         !
 ! D73   D(1,28,29,30)         -25.3777                                         !
 ! D74   D(1,28,29,31)         153.5661                                         !
 ! D75   D(27,28,29,30)         86.8632                                         !
 ! D76   D(27,28,29,31)        -94.193                                          !
 ! D77   D(28,29,30,32)       -163.8541                                         !
 ! D78   D(28,29,30,38)         76.837                                          !
 ! D79   D(28,29,30,39)        -38.4459                                         !
 ! D80   D(31,29,30,32)         17.1319                                         !
 ! D81   D(31,29,30,38)       -102.177                                          !
 ! D82   D(31,29,30,39)        142.5401                                         !
 ! D83   D(28,29,31,33)       -177.4241                                         !
 ! D84   D(30,29,31,33)          1.7026                                         !
 ! D85   D(29,30,32,33)        -27.4757                                         !
 ! D86   D(29,30,32,36)       -148.1852                                         !
 ! D87   D(29,30,32,37)         89.6918                                         !
 ! D88   D(38,30,32,33)         86.7161                                         !
 ! D89   D(38,30,32,36)        -33.9934                                         !
 ! D90   D(38,30,32,37)       -156.1164                                         !
 ! D91   D(39,30,32,33)       -148.8617                                         !
 ! D92   D(39,30,32,36)         90.4288                                         !
 ! D93   D(39,30,32,37)        -31.6942                                         !
 ! D94   D(29,31,33,32)        -20.0135                                         !
 ! D95   D(29,31,33,34)       -142.5976                                         !
 ! D96   D(29,31,33,35)        100.168                                          !
 ! D97   D(30,32,33,31)         29.2141                                         !
 ! D98   D(30,32,33,34)        146.4552                                         !
 ! D99   D(30,32,33,35)        -86.9795                                         !
 ! D100  D(36,32,33,31)        151.1567                                         !
 ! D101  D(36,32,33,34)        -91.6022                                         !
 ! D102  D(36,32,33,35)         34.9631                                         !
 ! D103  D(37,32,33,31)        -88.0912                                         !
 ! D104  D(37,32,33,34)         29.1498                                         !
 ! D105  D(37,32,33,35)        155.7151                                         !
 ! D106  D(1,40,41,42)          -0.9303                                         !
 ! D107  D(1,40,41,43)         178.1246                                         !
 ! D108  D(40,41,42,44)       -164.5081                                         !
 ! D109  D(40,41,42,50)         75.9987                                         !
 ! D110  D(40,41,42,51)        -39.7593                                         !
 ! D111  D(43,41,42,44)         16.3707                                         !
 ! D112  D(43,41,42,50)       -103.1225                                         !
 ! D113  D(43,41,42,51)        141.1195                                         !
 ! D114  D(40,41,43,45)       -176.7192                                         !
 ! D115  D(42,41,43,45)          2.4996                                         !
 ! D116  D(41,42,44,45)        -27.0697                                         !
 ! D117  D(41,42,44,48)       -147.9756                                         !
 ! D118  D(41,42,44,49)         90.0473                                         !
 ! D119  D(50,42,44,45)         87.8769                                         !
 ! D120  D(50,42,44,48)        -33.029                                          !
 ! D121  D(50,42,44,49)       -155.0061                                         !
 ! D122  D(51,42,44,45)       -148.9484                                         !
 ! D123  D(51,42,44,48)         90.1457                                         !
 ! D124  D(51,42,44,49)        -31.8314                                         !
 ! D125  D(41,42,51,4)          90.3139                                         !
 ! D126  D(44,42,51,4)        -152.3326                                         !
 ! D127  D(50,42,51,4)         -25.6588                                         !
 ! D128  D(41,43,45,44)        -20.5197                                         !
 ! D129  D(41,43,45,46)       -143.0495                                         !
 ! D130  D(41,43,45,47)         99.704                                          !
 ! D131  D(42,44,45,43)         29.2575                                         !
 ! D132  D(42,44,45,46)        146.5336                                         !
 ! D133  D(42,44,45,47)        -87.1758                                         !
 ! D134  D(48,44,45,43)        151.2853                                         !
 ! D135  D(48,44,45,46)        -91.4386                                         !
 ! D136  D(48,44,45,47)         34.852                                          !
 ! D137  D(49,44,45,43)        -87.9301                                         !
 ! D138  D(49,44,45,46)         29.346                                          !
 ! D139  D(49,44,45,47)        155.6366                                         !
 --------------------------------------------------------------------------------
 Stoichiometry    C16H24Cl2O8Pb
 Framework group  C1[X(C16H24Cl2O8Pb)]
 Deg. of freedom   147
 Full point group                 C1      NOp   1
 Largest Abelian subgroup         C1      NOp   1
 Largest concise Abelian subgroup C1      NOp   1
                         Standard orientation:                         
 ---------------------------------------------------------------------
 Center     Atomic      Atomic             Coordinates (Angstroms)
 Number     Number       Type             X           Y           Z
 ---------------------------------------------------------------------
      1         82           0       -0.015517   -0.628885    0.154773
      2         17           0        1.412305    1.063766    1.688754
      3         17           0       -1.541329   -1.354178    2.192646
      4          8           0        1.427644    0.635938   -1.944035
      5          6           0        1.915333    1.745084   -1.735628
      6          6           0        1.223749    3.047995   -1.394859
      7          8           0        3.261663    1.922119   -1.765913
      8          6           0        2.297499    4.098307   -1.689697
      9          6           0        3.582186    3.308094   -1.418585
     10          1           0        4.448764    3.606257   -2.035215
     11          1           0        3.867999    3.320668   -0.346597
     12          1           0        2.224909    5.001700   -1.057247
     13          1           0        2.255674    4.409884   -2.752356
     14          1           0        0.994574    2.984822   -0.308282
     15          1           0        0.268467    3.152139   -1.937627
     16          8           0       -1.814446   -2.127465   -1.379290
     17          6           0       -3.038671   -2.060209   -1.294945
     18          6           0       -3.898199   -0.965758   -0.697454
     19          8           0       -3.814558   -3.069776   -1.764467
     20          6           0       -5.293472   -1.271593   -1.248745
     21          6           0       -5.221536   -2.785794   -1.476920
     22          1           0       -5.809207   -3.150101   -2.338484
     23          1           0       -5.497570   -3.366151   -0.572416
     24          1           0       -6.115482   -0.994923   -0.563910
     25          1           0       -5.450547   -0.747147   -2.211998
     26          1           0       -3.829150   -1.076105    0.407147
     27          1           0       -3.486191    0.027335   -0.951099
     28          8           0       -1.511950    1.406078   -0.382191
     29          6           0       -1.841977    2.326056    0.376641
     30          6           0       -1.946925    2.337953    1.880629
     31          8           0       -2.150078    3.531982   -0.140117
     32          6           0       -2.780471    3.592400    2.159153
     33          6           0       -2.448052    4.471648    0.949285
     34          1           0       -3.275141    5.114611    0.600375
     35          1           0       -1.538458    5.087222    1.101980
     36          1           0       -2.528892    4.090392    3.112754
     37          1           0       -3.860287    3.344974    2.167787
     38          1           0       -0.903607    2.408782    2.262398
     39          1           0       -2.354816    1.379077    2.249929
     40          8           0        1.774482   -2.404422    0.843088
     41          6           0        2.973156   -2.274923    0.574584
     42          6           0        3.674827   -1.165910   -0.176087
     43          8           0        3.855623   -3.207658    0.989977
     44          6           0        5.038179   -1.779311   -0.508453
     45          6           0        5.215519   -2.798126    0.621698
     46          1           0        5.761092   -3.715341    0.337579
     47          1           0        5.680037   -2.357404    1.527280
     48          1           0        5.861456   -1.042970   -0.536599
     49          1           0        4.998606   -2.296666   -1.487278
     50          1           0        3.741858   -0.300748    0.519312
     51          1           0        3.077782   -0.824551   -1.042722
 ---------------------------------------------------------------------
 Rotational constants (GHZ):           0.1467773           0.1078124           0.0789811
 General basis read from cards:  (5D, 7F)
 ======================================================================================================
                                       Pseudopotential Parameters
 ======================================================================================================
  Center     Atomic      Valence      Angular      Power
  Number     Number     Electrons     Momentum     of R      Exponent        Coefficient   SO-Coeffient
 ======================================================================================================
    1         82            4
                                      G and up 
                                                     0      376.5803786       -0.17896050    0.00000000
                                                     1       86.4840014      -54.39723370    0.00000000
                                                     2       26.6784276     -199.70617590    0.00000000
                                                     2        9.4261986      -79.12239410    0.00000000
                                                     2        2.7101719      -24.98690200    0.00000000
                                                     2        0.8792031       -4.43979390    0.00000000
                                      S - G
                                                     0      132.4248796        2.81153860    0.00000000
                                                     1       47.2376044       65.03672050    0.00000000
                                                     2       17.6312727      212.78685450    0.00000000
                                                     2        5.4744712       72.10531750    0.00000000
                                                     2        1.2634856       33.01409400    0.00000000
                                                     2        0.7651447       -5.77084610    0.00000000
                                      P - G
                                                     0       67.8966454        4.87549110    0.00000000
                                                     1       24.9898225       63.91481020    0.00000000
                                                     2       10.7052939      148.10643580    0.00000000
                                                     2        3.2792568       47.31063010    0.00000000
                                                     2        0.8452522       21.03067020    0.00000000
                                                     2        0.6416245       -7.09307720    0.00000000
                                      D - G
                                                     0       68.8336005        3.21613880    0.00000000
                                                     1       24.2815874       55.73860860    0.00000000
                                                     2        9.4532762      121.41683510    0.00000000
                                                     2        2.4788185       19.34560640    0.00000000
                                                     2        2.4789161       15.36751680    0.00000000
                                                     2        0.5551738        6.12987240    0.00000000
                                      F - G
                                                     0      128.1021322        4.13536820    0.00000000
                                                     1       54.8029154       67.51284460    0.00000000
                                                     2       24.5529308      258.73731070    0.00000000
                                                     2        8.1144792      113.24782640    0.00000000
                                                     2        1.6931290       34.16802010    0.00000000
                                                     2        0.7670500       -6.55319560    0.00000000
    2         17
                                   No pseudopotential on this center.
    3         17
                                   No pseudopotential on this center.
    4          8
                                   No pseudopotential on this center.
    5          6
                                   No pseudopotential on this center.
    6          6
                                   No pseudopotential on this center.
    7          8
                                   No pseudopotential on this center.
    8          6
                                   No pseudopotential on this center.
    9          6
                                   No pseudopotential on this center.
   10          1
                                   No pseudopotential on this center.
   11          1
                                   No pseudopotential on this center.
   12          1
                                   No pseudopotential on this center.
   13          1
                                   No pseudopotential on this center.
   14          1
                                   No pseudopotential on this center.
   15          1
                                   No pseudopotential on this center.
   16          8
                                   No pseudopotential on this center.
   17          6
                                   No pseudopotential on this center.
   18          6
                                   No pseudopotential on this center.
   19          8
                                   No pseudopotential on this center.
   20          6
                                   No pseudopotential on this center.
   21          6
                                   No pseudopotential on this center.
   22          1
                                   No pseudopotential on this center.
   23          1
                                   No pseudopotential on this center.
   24          1
                                   No pseudopotential on this center.
   25          1
                                   No pseudopotential on this center.
   26          1
                                   No pseudopotential on this center.
   27          1
                                   No pseudopotential on this center.
   28          8
                                   No pseudopotential on this center.
   29          6
                                   No pseudopotential on this center.
   30          6
                                   No pseudopotential on this center.
   31          8
                                   No pseudopotential on this center.
   32          6
                                   No pseudopotential on this center.
   33          6
                                   No pseudopotential on this center.
   34          1
                                   No pseudopotential on this center.
   35          1
                                   No pseudopotential on this center.
   36          1
                                   No pseudopotential on this center.
   37          1
                                   No pseudopotential on this center.
   38          1
                                   No pseudopotential on this center.
   39          1
                                   No pseudopotential on this center.
   40          8
                                   No pseudopotential on this center.
   41          6
                                   No pseudopotential on this center.
   42          6
                                   No pseudopotential on this center.
   43          8
                                   No pseudopotential on this center.
   44          6
                                   No pseudopotential on this center.
   45          6
                                   No pseudopotential on this center.
   46          1
                                   No pseudopotential on this center.
   47          1
                                   No pseudopotential on this center.
   48          1
                                   No pseudopotential on this center.
   49          1
                                   No pseudopotential on this center.
   50          1
                                   No pseudopotential on this center.
   51          1
                                   No pseudopotential on this center.
 ======================================================================================================
 There are   526 symmetry adapted cartesian basis functions of A   symmetry.
 There are   500 symmetry adapted basis functions of A   symmetry.
   500 basis functions,  1114 primitive gaussians,   526 cartesian basis functions
   111 alpha electrons      111 beta electrons
       nuclear repulsion energy      2858.9354266680 Hartrees.
 NAtoms=   51 NActive=   51 NUniq=   51 SFac= 1.00D+00 NAtFMM=   60 NAOKFM=F Big=F
 Integral buffers will be    131072 words long.
 Raffenetti 1 integral format.
 Two-electron integral symmetry is turned on.
 Nuclear repulsion after empirical dispersion term =     2858.8792587253 Hartrees.
 Using the following non-standard input for PCM:
 eps=41.78
 --- end of non-standard input.
 ------------------------------------------------------------------------------
 Polarizable Continuum Model (PCM)
 =================================
 Model                : PCM.
 Atomic radii         : UFF (Universal Force Field).
 Polarization charges : Total charges.
 Charge compensation  : None.
 Solution method      : On-the-fly selection.
 Cavity type          : Scaled VdW (van der Waals Surface) (Alpha=1.100).
 Cavity algorithm     : GePol (No added spheres)
                        Default sphere list used, NSphG=   51.
                        Lebedev-Laikov grids with approx.  5.0 points / Ang**2.
                        Smoothing algorithm: York/Karplus (Gamma=1.0000).
                        Polarization charges: spherical gaussians, with
                                              point-specific exponents (IZeta= 3).
                        Self-potential: point-specific (ISelfS= 7).
                        Self-field    : sphere-specific E.n sum rule (ISelfD= 2).
 Solvent              : Water, Eps=  41.780000 Eps(inf)=   1.777849
 ------------------------------------------------------------------------------
 One-electron integrals computed using PRISM.
   1 Symmetry operations used in ECPInt.
 ECPInt:  NShTT=   27966 NPrTT=  237039 LenC2=   22517 LenP2D=   90094.
 LDataN:  DoStor=T MaxTD1= 6 Len=  172
 NBasis=   500 RedAO= T EigKep=  2.68D-03  NBF=   500
 NBsUse=   500 1.00D-06 EigRej= -1.00D+00 NBFU=   500
 Defaulting to unpruned grid for atomic number  82.
 Initial guess from the checkpoint file:  "02-PbCl2_gbl.chk"
 B after Tr=     0.000000    0.000000    0.000000
         Rot=    1.000000    0.000000   -0.000000    0.000000 Ang=   0.00 deg.
 Requested convergence on RMS density matrix=1.00D-08 within 128 cycles.
 Requested convergence on MAX density matrix=1.00D-06.
 Requested convergence on             energy=1.00D-06.
 No special actions if energy rises.
 Defaulting to unpruned grid for atomic number  82.
 Defaulting to unpruned grid for atomic number  82.
 Defaulting to unpruned grid for atomic number  82.
 Defaulting to unpruned grid for atomic number  82.
 Defaulting to unpruned grid for atomic number  82.
 Inv3:  Mode=1 IEnd=    48360675.
 Iteration    1 A*A^-1 deviation from unit magnitude is 3.11D-15 for   1863.
 Iteration    1 A*A^-1 deviation from orthogonality  is 2.57D-15 for   3728   2122.
 Iteration    1 A^-1*A deviation from unit magnitude is 2.89D-15 for   1683.
 Iteration    1 A^-1*A deviation from orthogonality  is 8.27D-15 for   3058   3041.
 Error on total polarization charges =  0.01349
 SCF Done:  E(RCAM-B3LYP) =  -2149.64939438     A.U. after   12 cycles
            NFock= 12  Conv=0.34D-08     -V/T= 2.0060
 DoSCS=F DFT=T ScalE2(SS,OS)=  1.000000  1.000000
 ExpMin= 5.98D-02 ExpMax= 1.28D+05 ExpMxC= 1.24D+03 IAcc=3 IRadAn=         5 AccDes= 0.00D+00
 HarFok:  IExCor=  205 AccDes= 0.00D+00 IRadAn=         5 IDoV=-2 UseB2=F ITyADJ=14
 ICtDFT= 12500011 ScaDFX=  1.000000  1.000000  1.000000  1.000000
 Defaulting to unpruned grid for atomic number  82.
 GSVD:  LWork=       -1428 too small for GESVD, short by        6290 words or        6290 for optimal perf.
 Range of M.O.s used for correlation:    35   500
 NBasis=   500 NAE=   111 NBE=   111 NFC=    34 NFV=     0
 NROrb=    466 NOA=    77 NOB=    77 NVA=   389 NVB=   389
 NEqPCM:  Using non-equilibrium solvation (IEInf=1, Eps=  41.7800, EpsInf=   1.7778)
 Inv3:  Mode=1 IEnd=    48360675.
 Iteration    1 A*A^-1 deviation from unit magnitude is 3.77D-15 for   1489.
 Iteration    1 A*A^-1 deviation from orthogonality  is 2.00D-15 for   2713   1121.
 Iteration    1 A^-1*A deviation from unit magnitude is 3.55D-15 for   1489.
 Iteration    1 A^-1*A deviation from orthogonality  is 2.82D-15 for   2939   2278.
 Orbital symmetries:
       Occupied  (A) (A) (A) (A) (A) (A) (A) (A) (A) (A) (A) (A)
                 (A) (A) (A) (A) (A) (A) (A) (A) (A) (A) (A) (A)
                 (A) (A) (A) (A) (A) (A) (A) (A) (A) (A) (A) (A)
                 (A) (A) (A) (A) (A) (A) (A) (A) (A) (A) (A) (A)
                 (A) (A) (A) (A) (A) (A) (A) (A) (A) (A) (A) (A)
                 (A) (A) (A) (A) (A) (A) (A) (A) (A) (A) (A) (A)
                 (A) (A) (A) (A) (A) (A) (A) (A) (A) (A) (A) (A)
                 (A) (A) (A) (A) (A) (A) (A) (A) (A) (A) (A) (A)
                 (A) (A) (A) (A) (A) (A) (A) (A) (A) (A) (A) (A)
                 (A) (A) (A)
       Virtual   (A) (A) (A) (A) (A) (A) (A) (A) (A) (A) (A) (A)
                 (A) (A) (A) (A) (A) (A) (A) (A) (A) (A) (A) (A)
                 (A) (A) (A) (A) (A) (A) (A) (A) (A) (A) (A) (A)
                 (A) (A) (A) (A) (A) (A) (A) (A) (A) (A) (A) (A)
                 (A) (A) (A) (A) (A) (A) (A) (A) (A) (A) (A) (A)
                 (A) (A) (A) (A) (A) (A) (A) (A) (A) (A) (A) (A)
                 (A) (A) (A) (A) (A) (A) (A) (A) (A) (A) (A) (A)
                 (A) (A) (A) (A) (A) (A) (A) (A) (A) (A) (A) (A)
                 (A) (A) (A) (A) (A) (A) (A) (A) (A) (A) (A) (A)
                 (A) (A) (A) (A) (A) (A) (A) (A) (A) (A) (A) (A)
                 (A) (A) (A) (A) (A) (A) (A) (A) (A) (A) (A) (A)
                 (A) (A) (A) (A) (A) (A) (A) (A) (A) (A) (A) (A)
                 (A) (A) (A) (A) (A) (A) (A) (A) (A) (A) (A) (A)
                 (A) (A) (A) (A) (A) (A) (A) (A) (A) (A) (A) (A)
                 (A) (A) (A) (A) (A) (A) (A) (A) (A) (A) (A) (A)
                 (A) (A) (A) (A) (A) (A) (A) (A) (A) (A) (A) (A)
                 (A) (A) (A) (A) (A) (A) (A) (A) (A) (A) (A) (A)
                 (A) (A) (A) (A) (A) (A) (A) (A) (A) (A) (A) (A)
                 (A) (A) (A) (A) (A) (A) (A) (A) (A) (A) (A) (A)
                 (A) (A) (A) (A) (A) (A) (A) (A) (A) (A) (A) (A)
                 (A) (A) (A) (A) (A) (A) (A) (A) (A) (A) (A) (A)
                 (A) (A) (A) (A) (A) (A) (A) (A) (A) (A) (A) (A)
                 (A) (A) (A) (A) (A) (A) (A) (A) (A) (A) (A) (A)
                 (A) (A) (A) (A) (A) (A) (A) (A) (A) (A) (A) (A)
                 (A) (A) (A) (A) (A) (A) (A) (A) (A) (A) (A) (A)
                 (A) (A) (A) (A) (A) (A) (A) (A) (A) (A) (A) (A)
                 (A) (A) (A) (A) (A) (A) (A) (A) (A) (A) (A) (A)
                 (A) (A) (A) (A) (A) (A) (A) (A) (A) (A) (A) (A)
                 (A) (A) (A) (A) (A) (A) (A) (A) (A) (A) (A) (A)
                 (A) (A) (A) (A) (A) (A) (A) (A) (A) (A) (A) (A)
                 (A) (A) (A) (A) (A) (A) (A) (A) (A) (A) (A) (A)
                 (A) (A) (A) (A) (A) (A) (A) (A) (A) (A) (A) (A)
                 (A) (A) (A) (A) (A)
    40 initial guesses have been made.
 Convergence on wavefunction:    0.001000000000000
 Iteration     1 Dimension    40 NMult     0 NNew     40
 CISAX will form    40 AO SS matrices at one time.
 Defaulting to unpruned grid for atomic number  82.
 Defaulting to unpruned grid for atomic number  82.
 Defaulting to unpruned grid for atomic number  82.
 Defaulting to unpruned grid for atomic number  82.
 Defaulting to unpruned grid for atomic number  82.
 New state      6 was old state     25
 New state      7 was old state      8
 New state      8 was old state      7
 New state      9 was old state     11
 New state     10 was old state      9
 Iteration     2 Dimension    60 NMult    40 NNew     20
 New state      1 was old state      3
 New state      2 was old state      1
 New state      3 was old state      2
 New state      4 was old state      5
 New state      5 was old state      4
 New state      6 was old state      9
 New state      8 was old state      6
 New state      9 was old state      8
 Iteration     3 Dimension    80 NMult    60 NNew     20
 Iteration     4 Dimension   100 NMult    80 NNew     20
 Iteration     5 Dimension   120 NMult   100 NNew     20
 Iteration     6 Dimension   140 NMult   120 NNew     20
 Iteration     7 Dimension   150 NMult   140 NNew     10
 Iteration     8 Dimension   154 NMult   150 NNew      4
 ***********************************************************************
 Excited states from <AA,BB:AA,BB> singles matrix:
 ***********************************************************************
 
 Ground to excited state transition densities written to RWF  633
 Ground to excited state transition electric dipole moments (Au):
       state          X           Y           Z        Dip. S.      Osc.
         1         0.2916      0.2170     -0.1923      0.1691      0.0238
         2         0.0493     -0.4434     -0.2161      0.2457      0.0347
         3         0.1337     -0.1580     -0.1297      0.0597      0.0085
         4         0.0640     -0.2374      0.0934      0.0692      0.0099
         5         0.6921     -0.8525     -0.4057      1.3703      0.2089
         6         0.8423      0.6340     -0.6280      1.5058      0.2365
         7        -0.6290     -0.0694     -0.6722      0.8522      0.1381
         8        -0.7434     -0.4016     -0.0851      0.7211      0.1188
         9         0.4836     -0.1934      0.1769      0.3025      0.0503
        10        -0.5491     -0.0245     -0.1400      0.3217      0.0537
 Ground to excited state transition velocity dipole moments (Au):
       state          X           Y           Z        Dip. S.      Osc.
         1        -0.0581     -0.0332      0.0352      0.0057      0.0180
         2        -0.0110      0.0698      0.0468      0.0072      0.0226
         3        -0.0239      0.0197      0.0055      0.0010      0.0031
         4        -0.0213      0.0456     -0.0192      0.0029      0.0090
         5        -0.1319      0.1564      0.0850      0.0491      0.1432
         6        -0.1551     -0.1128      0.1176      0.0506      0.1432
         7         0.1071      0.0185      0.1311      0.0290      0.0796
         8         0.1547      0.0997      0.0029      0.0339      0.0914
         9        -0.1041      0.0628     -0.0162      0.0151      0.0403
        10         0.1301      0.0101      0.0518      0.0197      0.0525
 Ground to excited state transition magnetic dipole moments (Au):
       state          X           Y           Z
         1        -0.0146      0.7700      0.1126
         2         0.5970      0.0893     -0.0969
         3        -1.1508     -0.4560     -0.2381
         4         0.4855     -0.8183     -0.2426
         5         0.4098      0.4328     -0.4286
         6        -0.7657      0.2266     -0.7283
         7        -0.2830     -0.7741      0.8321
         8        -0.1385     -0.0387      0.4380
         9        -0.0313      0.0740     -0.0755
        10        -0.3777      0.2675      0.3117
 Ground to excited state transition velocity quadrupole moments (Au):
       state          XX          YY          ZZ          XY          XZ          YZ
         1         0.0120     -0.1602     -0.0349     -0.0272      0.1014      0.1155
         2        -0.3105      0.0840      0.0262     -0.0441     -0.2241      0.0398
         3         0.0532      0.0472      0.1501     -0.0384     -0.0684      0.0188
         4         0.0609      0.1067     -0.0161     -0.0577      0.0149      0.0561
         5        -0.6281      0.0675      0.3243      0.2959     -0.0502      0.0859
         6        -0.0147     -0.3269      0.3129     -0.0142     -0.0245     -0.0220
         7        -0.2837     -0.0980      0.2055     -0.4919     -0.1800     -0.1904
         8        -0.2118      0.1661     -0.1044     -0.2733     -0.0056      0.0249
         9        -0.3941      0.2672      0.0952      0.0378     -0.1431      0.0678
        10        -0.1063     -0.3292      0.1537     -0.5998      0.1612      0.0925
 <0|del|b> * <b|rxdel|0> + <0|del|b> * <b|delr+rdel|0>
 Rotatory Strengths (R) in cgs (10**-40 erg-esu-cm/Gauss)
       state          XX          YY          ZZ    R(velocity)    E-M Angle
         1       -32.1389     -1.5719    -35.8026    -23.1711      110.66
         2        25.4715    -15.7878    -25.9011     -5.4058       95.38
         3       -15.1846     43.0186     29.1662     19.0001       64.31
         4       -52.9201    -13.1707    -75.2006    -47.0971      144.43
         5        99.3747   -196.3814     26.4562    -23.5168       98.06
         6      -173.5919     57.3107    138.9723      7.5637       88.22
         7        48.8540    178.7819    -40.1833     62.4842       71.16
         8        -4.0267    -22.1477    -42.4883    -22.8876      106.43
         9        20.2242     -2.7999      8.4776      8.6340       47.57
        10       -19.5474     14.2707    -80.2276    -28.5015      112.74
 1/2[<0|r|b>*<b|rxdel|0> + (<0|rxdel|b>*<b|r|0>)*]
 Rotatory Strengths (R) in cgs (10**-40 erg-esu-cm/Gauss)
       state          XX          YY          ZZ     R(length)
         1         3.0034   -118.1436     15.3134    -33.2756
         2       -20.7946     27.9925    -14.8013     -2.5345
         3       108.8238    -50.9580    -21.8336     12.0108
         4       -21.9649   -137.3663     16.0219    -47.7697
         5      -200.5365    260.9086   -122.9506    -20.8595
         6       456.0722   -101.5738   -323.4553     10.3477
         7      -125.8733    -38.0138    395.5338     77.2156
         8       -72.8049    -10.9974     26.3568    -19.1485
         9        10.6905     10.1266      9.4498     10.0890
        10      -146.6678      4.6372     30.8706    -37.0533
  1/2[<0|del|b>*<b|r|0> + (<0|r|b>*<b|del|0>)*] (Au)
       state          X           Y           Z        Dip. S.   Osc.(frdel)
         1        -0.0169     -0.0072     -0.0068      0.0309      0.0206
         2        -0.0005     -0.0310     -0.0101      0.0416      0.0277
         3        -0.0032     -0.0031     -0.0007      0.0070      0.0047
         4        -0.0014     -0.0108     -0.0018      0.0140      0.0093
         5        -0.0913     -0.1333     -0.0345      0.2592      0.1728
         6        -0.1307     -0.0715     -0.0739      0.2760      0.1840
         7        -0.0674     -0.0013     -0.0881      0.1568      0.1045
         8        -0.1150     -0.0400     -0.0002      0.1552      0.1035
         9        -0.0503     -0.0122     -0.0029      0.0654      0.0436
        10        -0.0715     -0.0002     -0.0073      0.0790      0.0526

 Excitation energies and oscillator strengths:
 
 Excited State   1:      Singlet-A      5.7505 eV  215.61 nm  f=0.0238  <S**2>=0.000
     105 ->113         0.25854
     105 ->114         0.22231
     105 ->116         0.10900
     105 ->118         0.12873
     106 ->113         0.26934
     106 ->114         0.18657
     106 ->115        -0.15386
     106 ->116         0.25459
     106 ->118         0.10133
     111 ->113         0.23136
     111 ->114         0.11080
 This state for optimization and/or second-order correction.
 Total Energy, E(TD-HF/TD-DFT) =  -2149.43806759    
 Copying the excited state density for this state as the 1-particle RhoCI density.
 
 Excited State   2:      Singlet-A      5.7710 eV  214.84 nm  f=0.0347  <S**2>=0.000
     101 ->114        -0.12016
     103 ->112        -0.15564
     103 ->115        -0.10485
     104 ->114         0.10156
     104 ->115         0.13677
     104 ->116        -0.14145
     105 ->115        -0.14627
     105 ->116         0.12961
     106 ->113         0.15579
     106 ->114         0.11486
     106 ->115         0.13075
     111 ->112         0.36031
     111 ->114        -0.13973
     111 ->115        -0.12372
     111 ->116         0.13110
 
 Excited State   3:      Singlet-A      5.8089 eV  213.44 nm  f=0.0085  <S**2>=0.000
      99 ->114         0.12005
     101 ->113         0.10234
     101 ->114        -0.13078
     103 ->112        -0.15400
     103 ->114         0.11106
     103 ->115        -0.10137
     103 ->117         0.11647
     104 ->115        -0.15604
     105 ->116        -0.14364
     106 ->113        -0.12003
     106 ->114        -0.17958
     107 ->115        -0.10180
     111 ->112         0.19011
     111 ->113         0.19480
     111 ->114        -0.12552
     111 ->115         0.22280
 
 Excited State   4:      Singlet-A      5.8577 eV  211.66 nm  f=0.0099  <S**2>=0.000
      98 ->112         0.10400
      99 ->112         0.14840
     101 ->112        -0.24339
     101 ->115        -0.12081
     103 ->112        -0.22354
     103 ->113         0.17705
     103 ->114        -0.24711
     108 ->112         0.12602
     111 ->112         0.16020
     111 ->113        -0.16698
     111 ->114         0.23756
 
 Excited State   5:      Singlet-A      6.2221 eV  199.26 nm  f=0.2089  <S**2>=0.000
     101 ->114         0.10019
     103 ->112         0.18349
     111 ->112         0.44495
     111 ->113         0.13294
     111 ->115        -0.27579
     111 ->116        -0.26777
 
 Excited State   6:      Singlet-A      6.4107 eV  193.40 nm  f=0.2365  <S**2>=0.000
     110 ->112         0.10856
     110 ->113         0.13269
     111 ->112        -0.14887
     111 ->113         0.53309
     111 ->118        -0.14900
 
 Excited State   7:      Singlet-A      6.6128 eV  187.49 nm  f=0.1381  <S**2>=0.000
     109 ->112         0.13615
     110 ->112        -0.27876
     110 ->113        -0.16190
     111 ->113         0.12510
     111 ->114        -0.20574
     111 ->115         0.26089
     111 ->116         0.14340
     111 ->117         0.36436
 
 Excited State   8:      Singlet-A      6.7246 eV  184.37 nm  f=0.1188  <S**2>=0.000
     109 ->112         0.31455
     109 ->113         0.10461
     110 ->112         0.43232
     110 ->113         0.17384
     110 ->116        -0.11759
     111 ->112         0.11457
     111 ->115         0.18018
     111 ->117         0.12942
 
 Excited State   9:      Singlet-A      6.7836 eV  182.77 nm  f=0.0503  <S**2>=0.000
     109 ->112         0.38855
     109 ->113         0.20278
     109 ->117         0.15305
     110 ->112        -0.31307
     110 ->113         0.24501
     110 ->118        -0.12078
     111 ->115        -0.14509
     111 ->117        -0.13951
 
 Excited State  10:      Singlet-A      6.8169 eV  181.88 nm  f=0.0537  <S**2>=0.000
     107 ->113         0.13474
     108 ->112        -0.12618
     109 ->112        -0.19856
     110 ->112        -0.15976
     110 ->113         0.45200
     110 ->118        -0.14551
     111 ->112         0.14127
     111 ->114         0.17683
     111 ->115         0.19974
     111 ->116         0.10904
 SavETr:  write IOETrn=   770 NScale= 10 NData=  16 NLR=1 NState=   10 LETran=     190.

 **********************************************************************

            Population analysis using the SCF Density.

 **********************************************************************

 Orbital symmetries:
       Occupied  (A) (A) (A) (A) (A) (A) (A) (A) (A) (A) (A) (A)
                 (A) (A) (A) (A) (A) (A) (A) (A) (A) (A) (A) (A)
                 (A) (A) (A) (A) (A) (A) (A) (A) (A) (A) (A) (A)
                 (A) (A) (A) (A) (A) (A) (A) (A) (A) (A) (A) (A)
                 (A) (A) (A) (A) (A) (A) (A) (A) (A) (A) (A) (A)
                 (A) (A) (A) (A) (A) (A) (A) (A) (A) (A) (A) (A)
                 (A) (A) (A) (A) (A) (A) (A) (A) (A) (A) (A) (A)
                 (A) (A) (A) (A) (A) (A) (A) (A) (A) (A) (A) (A)
                 (A) (A) (A) (A) (A) (A) (A) (A) (A) (A) (A) (A)
                 (A) (A) (A)
       Virtual   (A) (A) (A) (A) (A) (A) (A) (A) (A) (A) (A) (A)
                 (A) (A) (A) (A) (A) (A) (A) (A) (A) (A) (A) (A)
                 (A) (A) (A) (A) (A) (A) (A) (A) (A) (A) (A) (A)
                 (A) (A) (A) (A) (A) (A) (A) (A) (A) (A) (A) (A)
                 (A) (A) (A) (A) (A) (A) (A) (A) (A) (A) (A) (A)
                 (A) (A) (A) (A) (A) (A) (A) (A) (A) (A) (A) (A)
                 (A) (A) (A) (A) (A) (A) (A) (A) (A) (A) (A) (A)
                 (A) (A) (A) (A) (A) (A) (A) (A) (A) (A) (A) (A)
                 (A) (A) (A) (A) (A) (A) (A) (A) (A) (A) (A) (A)
                 (A) (A) (A) (A) (A) (A) (A) (A) (A) (A) (A) (A)
                 (A) (A) (A) (A) (A) (A) (A) (A) (A) (A) (A) (A)
                 (A) (A) (A) (A) (A) (A) (A) (A) (A) (A) (A) (A)
                 (A) (A) (A) (A) (A) (A) (A) (A) (A) (A) (A) (A)
                 (A) (A) (A) (A) (A) (A) (A) (A) (A) (A) (A) (A)
                 (A) (A) (A) (A) (A) (A) (A) (A) (A) (A) (A) (A)
                 (A) (A) (A) (A) (A) (A) (A) (A) (A) (A) (A) (A)
                 (A) (A) (A) (A) (A) (A) (A) (A) (A) (A) (A) (A)
                 (A) (A) (A) (A) (A) (A) (A) (A) (A) (A) (A) (A)
                 (A) (A) (A) (A) (A) (A) (A) (A) (A) (A) (A) (A)
                 (A) (A) (A) (A) (A) (A) (A) (A) (A) (A) (A) (A)
                 (A) (A) (A) (A) (A) (A) (A) (A) (A) (A) (A) (A)
                 (A) (A) (A) (A) (A) (A) (A) (A) (A) (A) (A) (A)
                 (A) (A) (A) (A) (A) (A) (A) (A) (A) (A) (A) (A)
                 (A) (A) (A) (A) (A) (A) (A) (A) (A) (A) (A) (A)
                 (A) (A) (A) (A) (A) (A) (A) (A) (A) (A) (A) (A)
                 (A) (A) (A) (A) (A) (A) (A) (A) (A) (A) (A) (A)
                 (A) (A) (A) (A) (A) (A) (A) (A) (A) (A) (A) (A)
                 (A) (A) (A) (A) (A) (A) (A) (A) (A) (A) (A) (A)
                 (A) (A) (A) (A) (A) (A) (A) (A) (A) (A) (A) (A)
                 (A) (A) (A) (A) (A) (A) (A) (A) (A) (A) (A) (A)
                 (A) (A) (A) (A) (A) (A) (A) (A) (A) (A) (A) (A)
                 (A) (A) (A) (A) (A) (A) (A) (A) (A) (A) (A) (A)
                 (A) (A) (A) (A) (A)
 The electronic state is 1-A.
 Alpha  occ. eigenvalues -- -101.54254-101.54119 -19.27832 -19.27306 -19.26860
 Alpha  occ. eigenvalues --  -19.26696 -19.23603 -19.23029 -19.22046 -19.22017
 Alpha  occ. eigenvalues --  -10.42018 -10.41544 -10.40848 -10.40774 -10.33099
 Alpha  occ. eigenvalues --  -10.32864 -10.32658 -10.32613 -10.28280 -10.28152
 Alpha  occ. eigenvalues --  -10.28052 -10.28009 -10.27968 -10.27851 -10.27744
 Alpha  occ. eigenvalues --  -10.27693  -9.45967  -9.45819  -7.21894  -7.21729
 Alpha  occ. eigenvalues --   -7.21616  -7.21594  -7.21477  -7.21458  -1.20570
 Alpha  occ. eigenvalues --   -1.20067  -1.19360  -1.19287  -1.12111  -1.11661
 Alpha  occ. eigenvalues --   -1.11029  -1.10963  -0.89462  -0.89234  -0.89011
 Alpha  occ. eigenvalues --   -0.88914  -0.82601  -0.81933  -0.81730  -0.81531
 Alpha  occ. eigenvalues --   -0.81197  -0.81171  -0.70921  -0.70679  -0.70294
 Alpha  occ. eigenvalues --   -0.70284  -0.64672  -0.64309  -0.63679  -0.63650
 Alpha  occ. eigenvalues --   -0.60139  -0.59651  -0.59408  -0.59029  -0.58900
 Alpha  occ. eigenvalues --   -0.58576  -0.57961  -0.57658  -0.55333  -0.54364
 Alpha  occ. eigenvalues --   -0.53601  -0.53407  -0.53235  -0.50963  -0.50429
 Alpha  occ. eigenvalues --   -0.50286  -0.50032  -0.49949  -0.49574  -0.49536
 Alpha  occ. eigenvalues --   -0.49126  -0.48578  -0.47767  -0.47471  -0.46565
 Alpha  occ. eigenvalues --   -0.44863  -0.44566  -0.44105  -0.43981  -0.43266
 Alpha  occ. eigenvalues --   -0.42931  -0.42718  -0.42621  -0.41577  -0.41259
 Alpha  occ. eigenvalues --   -0.41140  -0.40769  -0.38111  -0.37804  -0.37495
 Alpha  occ. eigenvalues --   -0.37122  -0.37092  -0.36313  -0.36141  -0.35380
 Alpha  occ. eigenvalues --   -0.34995  -0.34036  -0.33556  -0.32998  -0.32485
 Alpha  occ. eigenvalues --   -0.29959
 Alpha virt. eigenvalues --    0.02200   0.02687   0.03609   0.04156   0.05154
 Alpha virt. eigenvalues --    0.05744   0.07637   0.08887   0.10057   0.10472
 Alpha virt. eigenvalues --    0.11003   0.12494   0.12916   0.13366   0.13738
 Alpha virt. eigenvalues --    0.14034   0.14960   0.15131   0.15758   0.15880
 Alpha virt. eigenvalues --    0.16145   0.16520   0.16686   0.17684   0.18158
 Alpha virt. eigenvalues --    0.18712   0.19015   0.19501   0.19806   0.20545
 Alpha virt. eigenvalues --    0.21337   0.21881   0.22068   0.22723   0.23233
 Alpha virt. eigenvalues --    0.24253   0.24470   0.24546   0.24699   0.24980
 Alpha virt. eigenvalues --    0.25228   0.25746   0.26068   0.29554   0.30195
 Alpha virt. eigenvalues --    0.30268   0.30737   0.30978   0.31339   0.34348
 Alpha virt. eigenvalues --    0.36032   0.37722   0.37774   0.39554   0.40428
 Alpha virt. eigenvalues --    0.40735   0.41112   0.43018   0.43929   0.44151
 Alpha virt. eigenvalues --    0.44746   0.45938   0.47386   0.48335   0.48694
 Alpha virt. eigenvalues --    0.49070   0.49473   0.49779   0.51154   0.51817
 Alpha virt. eigenvalues --    0.52509   0.52883   0.53842   0.54402   0.54805
 Alpha virt. eigenvalues --    0.55455   0.56246   0.56578   0.56862   0.57594
 Alpha virt. eigenvalues --    0.57749   0.58464   0.59477   0.59735   0.60213
 Alpha virt. eigenvalues --    0.60559   0.61076   0.61205   0.61530   0.61767
 Alpha virt. eigenvalues --    0.61987   0.62220   0.63034   0.64041   0.64666
 Alpha virt. eigenvalues --    0.65631   0.65760   0.66080   0.66438   0.66569
 Alpha virt. eigenvalues --    0.67020   0.67454   0.67767   0.68512   0.68908
 Alpha virt. eigenvalues --    0.69273   0.69503   0.69766   0.70021   0.70132
 Alpha virt. eigenvalues --    0.70306   0.70748   0.71136   0.71318   0.71858
 Alpha virt. eigenvalues --    0.72114   0.72217   0.72912   0.73086   0.73316
 Alpha virt. eigenvalues --    0.73878   0.74509   0.75398   0.75832   0.76057
 Alpha virt. eigenvalues --    0.76402   0.77131   0.78214   0.78457   0.79326
 Alpha virt. eigenvalues --    0.79835   0.81026   0.81456   0.83294   0.84191
 Alpha virt. eigenvalues --    0.85383   0.85807   0.85922   0.86108   0.86449
 Alpha virt. eigenvalues --    0.86600   0.87112   0.87767   0.88391   0.88701
 Alpha virt. eigenvalues --    0.89950   0.90899   0.91186   0.92368   0.92706
 Alpha virt. eigenvalues --    0.93111   0.93736   0.94732   0.95843   0.95910
 Alpha virt. eigenvalues --    0.96721   0.97762   0.98977   0.99485   1.01260
 Alpha virt. eigenvalues --    1.01880   1.03325   1.05816   1.07939   1.10647
 Alpha virt. eigenvalues --    1.11554   1.12182   1.13022   1.13983   1.14413
 Alpha virt. eigenvalues --    1.15225   1.15806   1.16827   1.17762   1.17965
 Alpha virt. eigenvalues --    1.18259   1.18770   1.19367   1.19618   1.19834
 Alpha virt. eigenvalues --    1.20741   1.21794   1.22303   1.22688   1.23889
 Alpha virt. eigenvalues --    1.24722   1.25349   1.25723   1.26269   1.26503
 Alpha virt. eigenvalues --    1.27004   1.27497   1.28261   1.29164   1.30222
 Alpha virt. eigenvalues --    1.31776   1.32270   1.33319   1.34412   1.34998
 Alpha virt. eigenvalues --    1.39357   1.39497   1.40021   1.40666   1.43752
 Alpha virt. eigenvalues --    1.45044   1.45614   1.46453   1.46724   1.46966
 Alpha virt. eigenvalues --    1.47473   1.47757   1.50633   1.50916   1.51589
 Alpha virt. eigenvalues --    1.53256   1.58906   1.59389   1.59610   1.59870
 Alpha virt. eigenvalues --    1.60052   1.60212   1.60476   1.60864   1.63965
 Alpha virt. eigenvalues --    1.64348   1.64617   1.64850   1.65929   1.66159
 Alpha virt. eigenvalues --    1.66398   1.66622   1.66804   1.67040   1.67411
 Alpha virt. eigenvalues --    1.67620   1.69112   1.69702   1.69809   1.70440
 Alpha virt. eigenvalues --    1.71369   1.72440   1.72642   1.73019   1.74327
 Alpha virt. eigenvalues --    1.74496   1.74564   1.75207   1.76457   1.76838
 Alpha virt. eigenvalues --    1.77324   1.77877   1.78813   1.78931   1.79048
 Alpha virt. eigenvalues --    1.79352   1.79676   1.80002   1.80033   1.80324
 Alpha virt. eigenvalues --    1.80379   1.80910   1.81092   1.81392   1.81711
 Alpha virt. eigenvalues --    1.82083   1.82839   1.83735   1.84375   1.84784
 Alpha virt. eigenvalues --    1.85212   1.85604   1.86098   1.86577   1.87318
 Alpha virt. eigenvalues --    1.87946   1.93111   1.93844   1.94060   1.95177
 Alpha virt. eigenvalues --    1.97598   1.97793   1.98027   1.98290   1.99172
 Alpha virt. eigenvalues --    1.99335   2.01571   2.01776   2.04628   2.05138
 Alpha virt. eigenvalues --    2.05578   2.06042   2.08584   2.09001   2.09772
 Alpha virt. eigenvalues --    2.11753   2.12449   2.12590   2.12799   2.13495
 Alpha virt. eigenvalues --    2.16361   2.16751   2.17087   2.17959   2.18683
 Alpha virt. eigenvalues --    2.18818   2.19555   2.19692   2.22481   2.23007
 Alpha virt. eigenvalues --    2.23596   2.26739   2.27724   2.27876   2.28409
 Alpha virt. eigenvalues --    2.28738   2.33050   2.34105   2.34575   2.35505
 Alpha virt. eigenvalues --    2.39943   2.40068   2.41091   2.41832   2.46510
 Alpha virt. eigenvalues --    2.46790   2.46966   2.47492   2.49085   2.49492
 Alpha virt. eigenvalues --    2.50051   2.50480   2.54317   2.54632   2.54839
 Alpha virt. eigenvalues --    2.54923   2.57543   2.57978   2.58321   2.60074
 Alpha virt. eigenvalues --    2.64236   2.64515   2.64556   2.65845   2.68851
 Alpha virt. eigenvalues --    2.69038   2.69891   2.70562   2.72263   2.73153
 Alpha virt. eigenvalues --    2.73656   2.74016   2.74120   2.75112   2.75688
 Alpha virt. eigenvalues --    2.76368   2.90001   2.90238   2.90912   2.90942
 Alpha virt. eigenvalues --    3.02332   3.02644   3.02791   3.03063   3.05565
 Alpha virt. eigenvalues --    3.06157   3.06281   3.07310   3.12723   3.13459
 Alpha virt. eigenvalues --    3.14808   3.15558   3.18642   3.18787   3.20122
 Alpha virt. eigenvalues --    3.20331   3.35704   3.36087   3.37067   3.38598
 Alpha virt. eigenvalues --    3.49736   3.51550   3.52996   3.53788   3.55236
 Alpha virt. eigenvalues --    3.56464   3.57743   3.58494   9.84011
          Condensed to atoms (all electrons):
 Mulliken charges:
               1
     1  Pb   1.079007
     2  Cl  -0.671308
     3  Cl  -0.663399
     4  O   -0.305902
     5  C    0.219285
     6  C   -0.054929
     7  O   -0.249834
     8  C   -0.031861
     9  C    0.130747
    10  H    0.057661
    11  H    0.057976
    12  H    0.045111
    13  H    0.048912
    14  H    0.082408
    15  H    0.059259
    16  O   -0.298746
    17  C    0.211894
    18  C   -0.078993
    19  O   -0.246510
    20  C   -0.034751
    21  C    0.130698
    22  H    0.057740
    23  H    0.059184
    24  H    0.045832
    25  H    0.048211
    26  H    0.082006
    27  H    0.071640
    28  O   -0.340439
    29  C    0.243060
    30  C   -0.057128
    31  O   -0.235465
    32  C   -0.035793
    33  C    0.130084
    34  H    0.063206
    35  H    0.065250
    36  H    0.049421
    37  H    0.051763
    38  H    0.085733
    39  H    0.069966
    40  O   -0.320647
    41  C    0.233852
    42  C   -0.094779
    43  O   -0.236939
    44  C   -0.031640
    45  C    0.130019
    46  H    0.061099
    47  H    0.062632
    48  H    0.047879
    49  H    0.050275
    50  H    0.085158
    51  H    0.072093
 Sum of Mulliken charges =  -0.00000
 Mulliken charges with hydrogens summed into heavy atoms:
               1
     1  Pb   1.079007
     2  Cl  -0.671308
     3  Cl  -0.663399
     4  O   -0.305902
     5  C    0.219285
     6  C    0.086737
     7  O   -0.249834
     8  C    0.062163
     9  C    0.246384
    16  O   -0.298746
    17  C    0.211894
    18  C    0.074654
    19  O   -0.246510
    20  C    0.059293
    21  C    0.247622
    28  O   -0.340439
    29  C    0.243060
    30  C    0.098570
    31  O   -0.235465
    32  C    0.065391
    33  C    0.258540
    40  O   -0.320647
    41  C    0.233852
    42  C    0.062471
    43  O   -0.236939
    44  C    0.066513
    45  C    0.253751
 Electronic spatial extent (au):  <R**2>=          14342.6417
 Charge=             -0.0000 electrons
 Dipole moment (field-independent basis, Debye):
    X=             -0.4978    Y=             10.6652    Z=             -5.8666  Tot=             12.1824
 Quadrupole moment (field-independent basis, Debye-Ang):
   XX=            -99.0760   YY=           -150.3818   ZZ=           -199.4736
   XY=             -9.5450   XZ=             -4.0381   YZ=             10.0717
 Traceless Quadrupole moment (field-independent basis, Debye-Ang):
   XX=             50.5678   YY=             -0.7380   ZZ=            -49.8298
   XY=             -9.5450   XZ=             -4.0381   YZ=             10.0717
 Octapole moment (field-independent basis, Debye-Ang**2):
  XXX=             -5.6772  YYY=            118.5371  ZZZ=            -28.7723  XYY=              9.6779
  XXY=            -96.7705  XXZ=            -41.8493  XZZ=             -9.2486  YZZ=             15.9745
  YYZ=             -1.9317  XYZ=            -62.1915
 Hexadecapole moment (field-independent basis, Debye-Ang**3):
 XXXX=          -7391.9457 YYYY=          -5761.5497 ZZZZ=          -2367.2700 XXXY=            -13.8603
 XXXZ=            253.5176 YYYX=            -90.6406 YYYZ=             73.6594 ZZZX=             41.9892
 ZZZY=              8.8227 XXYY=          -2056.7305 XXZZ=          -1955.6276 YYZZ=          -1402.3268
 XXYZ=             91.7363 YYXZ=           -219.2818 ZZXY=            -32.7265
 N-N= 2.858879258725D+03 E-N=-1.078272052726D+04  KE= 2.136725070285D+03
 Unable to Open any file for archive entry.
 1\1\GINC-MPCL008\SP\RCAM-B3LYP TD-FC\Gen\C16H24Cl2O8Pb1\EDBA4025\15-Ap
 r-2021\0\\# cam-b3lyp/gen pseudo=read TD=NStates=10 Geom=Check Guess=R
 ead empiricaldispersion=gd3bj SCRF=(read)\\PbCl2_gbl\\0,1\Pb,0,-0.0031
 559107,-0.6342964915,0.1606765315\Cl,0,1.4011012328,1.0820154149,1.690
 1124545\Cl,0,-1.5162596874,-1.3780532681,2.201367964\O,0,1.4193295318,
 0.6476045742,-1.9418817839\C,0,1.8908832996,1.7641786872,-1.7360205644
 \C,0,1.1805714276,3.0574417951,-1.3970286849\O,0,3.2344417217,1.960893
 0454,-1.7679300538\C,0,2.2385163381,4.1228384499,-1.6948649044\C,0,3.5
 349132343,3.3520752124,-1.4235061803\H,0,4.3964479157,3.66175707,-2.04
 1525292\H,0,3.8215104493,3.3708640666,-0.3518184851\H,0,2.1532653938,5
 .026260495,-1.0640380547\H,0,2.1911327512,4.4317620824,-2.7580647494\H
 ,0,0.9533610248,2.9929632452,-0.3101163422\H,0,0.2233573459,3.14653250
 17,-1.93907391\O,0,-1.7813285656,-2.1620035284,-1.3688495156\C,0,-3.00
 63300074,-2.1125594405,-1.2834555362\C,0,-3.8812689127,-1.0297140257,-
 0.6871907032\O,0,-3.7677549752,-3.1342874277,-1.7503402715\C,0,-5.2724
 175845,-1.3570294611,-1.2365679538\C,0,-5.1784800081,-2.8704395084,-1.
 4619754318\H,0,-5.7615438601,-3.2449555078,-2.3222910444\H,0,-5.445123
 6998,-3.4530764392,-0.5561215733\H,0,-6.0977596004,-1.0911588024,-0.55
 14632227\H,0,-5.4380700992,-0.8367632783,-2.2006506968\H,0,-3.80957874
 24,-1.136951102,0.4175485137\H,0,-3.484116099,-0.0311624298,-0.9430903
 186\O,0,-1.5297917362,1.3774730648,-0.3786618946\C,0,-1.8725767119,2.2
 939395421,0.3787623026\C,0,-1.976286196,2.3071332084,1.8828253628\O,0,
 -2.1988242241,3.4942370423,-0.1399581882\C,0,-2.8278914706,3.549737616
 5,2.1597992254\C,0,-2.5095398939,4.4314841013,0.9479678504\H,0,-3.3463
 01063,5.0615815448,0.5986480166\H,0,-1.6089356731,5.0606256683,1.09863
 63316\H,0,-2.5827590223,4.0531662664,3.1122237193\H,0,-3.9039522564,3.
 2865095028,2.1699326418\H,0,-0.9337643502,2.3939846396,2.2634593173\H,
 0,-2.3697168881,1.3430734366,2.2543123232\O,0,1.8133473717,-2.38207380
 12,0.8505978157\C,0,3.0097418138,-2.2355068308,0.5807006611\C,0,3.6943
 609409,-1.117735364,-0.1727195312\O,0,3.9061882562,-3.1544064786,0.996
 9932725\C,0,5.066258453,-1.7116909485,-0.5052447996\C,0,5.2595840168,-
 2.7256600033,0.6266419557\H,0,5.8182941398,-3.6353047228,0.3437184724\
 H,0,5.7184288777,-2.2764610473,1.5309510244\H,0,5.878613322,-0.9634029
 243,-0.5355599991\H,0,5.0333686254,-2.2314170239,-1.483060188\H,0,3.74
 93364516,-0.2503722348,0.5209928955\H,0,3.0915633025,-0.7868101835,-1.
 0394187781\\Version=ES64L-G16RevC.01\State=1-A\HF=-2149.6493944\RMSD=3
 .367e-09\PG=C01 [X(C16H24Cl2O8Pb1)]\\@
 The archive entry for this job was punched.


 EXPERIENCE IS A WONDERFUL THING.  IT ENABLES
 YOU TO RECOGNIZE A MISTAKE WHEN YOU MAKE IT AGAIN.
           - BACK OF A SUGAR PACKET
 Job cpu time:       0 days  2 hours  0 minutes 12.8 seconds.
 Elapsed time:       0 days  0 hours 24 minutes  4.0 seconds.
 File lengths (MBytes):  RWF=   2508 Int=      0 D2E=      0 Chk=    536 Scr=      1
 Normal termination of Gaussian 16 at Thu Apr 15 17:48:31 2021.
