 Entering Gaussian System, Link 0=g16
 Input=02-PbCl2_nmp_23600158.com
 Output=02-PbCl2_nmp_23600158.log
 Initial command:
 /cm/shared/uniol/software/gaussian/g16.c01/g16/l1.exe "/scratch/23600158_edba4025/Gau-6403.inp" -scrdir="/scratch/23600158_edba4025/"
 Entering Link 1 = /cm/shared/uniol/software/gaussian/g16.c01/g16/l1.exe PID=      6404.
  
 Copyright (c) 1988-2019, Gaussian, Inc.  All Rights Reserved.
  
 This is part of the Gaussian(R) 16 program.  It is based on
 the Gaussian(R) 09 system (copyright 2009, Gaussian, Inc.),
 the Gaussian(R) 03 system (copyright 2003, Gaussian, Inc.),
 the Gaussian(R) 98 system (copyright 1998, Gaussian, Inc.),
 the Gaussian(R) 94 system (copyright 1995, Gaussian, Inc.),
 the Gaussian 92(TM) system (copyright 1992, Gaussian, Inc.),
 the Gaussian 90(TM) system (copyright 1990, Gaussian, Inc.),
 the Gaussian 88(TM) system (copyright 1988, Gaussian, Inc.),
 the Gaussian 86(TM) system (copyright 1986, Carnegie Mellon
 University), and the Gaussian 82(TM) system (copyright 1983,
 Carnegie Mellon University). Gaussian is a federally registered
 trademark of Gaussian, Inc.
  
 This software contains proprietary and confidential information,
 including trade secrets, belonging to Gaussian, Inc.
  
 This software is provided under written license and may be
 used, copied, transmitted, or stored only in accord with that
 written license.
  
 The following legend is applicable only to US Government
 contracts under FAR:
  
                    RESTRICTED RIGHTS LEGEND
  
 Use, reproduction and disclosure by the US Government is
 subject to restrictions as set forth in subparagraphs (a)
 and (c) of the Commercial Computer Software - Restricted
 Rights clause in FAR 52.227-19.
  
 Gaussian, Inc.
 340 Quinnipiac St., Bldg. 40, Wallingford CT 06492
  
  
 ---------------------------------------------------------------
 Warning -- This program may not be used in any manner that
 competes with the business of Gaussian, Inc. or will provide
 assistance to any competitor of Gaussian, Inc.  The licensee
 of this program is prohibited from giving any competitor of
 Gaussian, Inc. access to this program.  By using this program,
 the user acknowledges that Gaussian, Inc. is engaged in the
 business of creating and licensing software in the field of
 computational chemistry and represents and warrants to the
 licensee that it is not a competitor of Gaussian, Inc. and that
 it will not use this program in any manner prohibited above.
 ---------------------------------------------------------------
  

 Cite this work as:
 Gaussian 16, Revision C.01,
 M. J. Frisch, G. W. Trucks, H. B. Schlegel, G. E. Scuseria, 
 M. A. Robb, J. R. Cheeseman, G. Scalmani, V. Barone, 
 G. A. Petersson, H. Nakatsuji, X. Li, M. Caricato, A. V. Marenich, 
 J. Bloino, B. G. Janesko, R. Gomperts, B. Mennucci, H. P. Hratchian, 
 J. V. Ortiz, A. F. Izmaylov, J. L. Sonnenberg, D. Williams-Young, 
 F. Ding, F. Lipparini, F. Egidi, J. Goings, B. Peng, A. Petrone, 
 T. Henderson, D. Ranasinghe, V. G. Zakrzewski, J. Gao, N. Rega, 
 G. Zheng, W. Liang, M. Hada, M. Ehara, K. Toyota, R. Fukuda, 
 J. Hasegawa, M. Ishida, T. Nakajima, Y. Honda, O. Kitao, H. Nakai, 
 T. Vreven, K. Throssell, J. A. Montgomery, Jr., J. E. Peralta, 
 F. Ogliaro, M. J. Bearpark, J. J. Heyd, E. N. Brothers, K. N. Kudin, 
 V. N. Staroverov, T. A. Keith, R. Kobayashi, J. Normand, 
 K. Raghavachari, A. P. Rendell, J. C. Burant, S. S. Iyengar, 
 J. Tomasi, M. Cossi, J. M. Millam, M. Klene, C. Adamo, R. Cammi, 
 J. W. Ochterski, R. L. Martin, K. Morokuma, O. Farkas, 
 J. B. Foresman, and D. J. Fox, Gaussian, Inc., Wallingford CT, 2019.
 
 ******************************************
 Gaussian 16:  ES64L-G16RevC.01  3-Jul-2019
                19-Apr-2021 
 ******************************************
 %oldChk=01-PbCl2_nmp
 %chk=02-PbCl2_nmp
 %mem=16GB
 %NProcShared=5
 Will use up to    5 processors via shared memory.
 Copying data from "01-PbCl2_nmp.chk" to current chk file "02-PbCl2_nmp.chk"
 IOpt=  2 FromEx=T IUOpen= 4 IOptOp= 5 NList=   0 IFRang= 0 IUIn= 4 IUOut= 2.
 ----------------------------------------------------------------------
 # cam-b3lyp/gen pseudo=read TD=NStates=10 Geom=Check Guess=Read empiri
 caldispersion=gd3bj SCRF=(read)
 ----------------------------------------------------------------------
 1/29=2,38=1,40=2,172=1/1;
 2/12=2,40=1/2;
 3/5=7,11=9,14=-4,16=1,17=8,25=1,30=1,70=2203,74=-40,116=-2,124=41/1,2,3,8;
 4/5=1/1;
 5/5=2,38=6/2;
 8/6=1,10=1,108=10/1;
 9/41=10,42=1,70=2/14;
 6/7=2,8=2,9=2,10=2/1;
 99/5=1,9=1/99;
 ---------
 PbCl2_nmp
 ---------
 Structure from the checkpoint file:  "02-PbCl2_nmp.chk"
 Charge =  0 Multiplicity = 1
 Redundant internal coordinates found in file.  (old form).
 Pb,0,-0.2778791478,-1.234329297,-0.3344392758
 Cl,0,-1.148008559,-3.5892949413,-1.3864985305
 Cl,0,-1.0500603666,-1.7307180301,2.2512307505
 O,0,0.3361139132,0.1338532651,-2.5842663429
 C,0,0.9804452082,1.2008327404,-2.4688386105
 C,0,2.4866980577,1.3467076454,-2.3260338351
 N,0,0.4242342641,2.4417996943,-2.402173828
 C,0,2.7459217734,2.8434164089,-2.5566033782
 C,0,1.3989321943,3.5154191933,-2.2161370803
 C,0,-1.0036138442,2.6795006108,-2.3643596772
 H,0,-1.5167954144,1.7081834362,-2.2408042493
 H,0,-1.2554100322,3.3344628713,-1.504463487
 H,0,-1.3520579324,3.1805703949,-3.2919017321
 H,0,2.7262837119,1.0240157828,-1.2901280478
 H,0,3.0179778532,0.6733326388,-3.0234552953
 H,0,3.5726769698,3.2465982963,-1.9434834682
 H,0,2.9925284288,3.0256807612,-3.6210019577
 H,0,1.163054453,4.3731736728,-2.8778668904
 H,0,1.3558689895,3.8771341608,-1.1640349278
 O,0,1.2399950894,0.8305295752,0.6560185253
 C,0,0.6971726135,1.8541839607,1.1326128953
 C,0,-0.7700607767,2.0365732267,1.4775018835
 N,0,1.3627511286,2.9979681298,1.4551337552
 C,0,-0.912242188,3.5458263071,1.7219601467
 C,0,0.5109592706,3.9956080578,2.1060819229
 C,0,2.8048063675,3.1245890575,1.412070977
 H,0,3.212667778,2.2458750689,0.8801537537
 H,0,3.2302745652,3.1601156606,2.4376545585
 H,0,3.0978742868,4.0509452371,0.8780742424
 H,0,-0.9713343407,1.4258506048,2.3839196402
 H,0,-1.4135868176,1.6293697631,0.6741555916
 H,0,-1.6521441161,3.7990154336,2.5024639207
 H,0,-1.2197591242,4.0539039454,0.7857068014
 H,0,0.7622350572,5.0115310183,1.7417639707
 H,0,0.6797357659,3.9757875183,3.2065601436
 O,0,-2.5208188448,0.0881908709,-0.6553472176
 C,0,-3.6470829518,-0.256989798,-0.2116806429
 C,0,-4.0936013765,-1.6544445995,0.1695585127
 N,0,-4.6618600362,0.607594205,0.0372993843
 C,0,-5.6172465021,-1.527413168,0.3158518102
 C,0,-5.832413648,-0.0359949738,0.6384686046
 C,0,-4.5411939921,2.0465889121,-0.0707653805
 H,0,-3.5833529228,2.2779524262,-0.5700736187
 H,0,-4.5539016987,2.5206464924,0.9337032931
 H,0,-5.3794671496,2.4606593516,-0.6661977727
 H,0,-3.5783024631,-1.8984166494,1.1252406264
 H,0,-3.7462637891,-2.3951529632,-0.5751821782
 H,0,-6.0417633206,-2.184553774,1.0961064096
 H,0,-6.1112778664,-1.7727226285,-0.6451359297
 H,0,-6.764017387,0.3777346969,0.2037891731
 H,0,-5.8489162043,0.1646172017,1.733588835
 O,0,2.1020754385,-2.115502621,-0.1954496701
 C,0,2.9054469279,-1.6651330319,0.6619418561
 C,0,2.6984452931,-1.5852065576,2.1622669468
 N,0,4.149106709,-1.2073490618,0.3713139495
 C,0,3.8221577149,-0.6532827528,2.6360428098
 C,0,4.9114401354,-0.8117270727,1.5570946327
 C,0,4.742372724,-1.2710619699,-0.9477136743
 H,0,3.9638431083,-1.6084252536,-1.6553999523
 H,0,5.5910455741,-1.9869914622,-0.9628254851
 H,0,5.1176459304,-0.2737586825,-1.2536475171
 H,0,2.8076388803,-2.6168514518,2.562876785
 H,0,1.6715405669,-1.2481666721,2.3954190907
 H,0,4.2010983326,-0.8919181695,3.646059622
 H,0,3.4560576411,0.3916904259,2.6395881952
 H,0,5.4685481933,0.1255710476,1.3569009411
 H,0,5.653981903,-1.6015441863,1.8112846966
 Recover connectivity data from disk.
                           ----------------------------
                           !    Current Parameters    !
                           ! (Angstroms and Degrees)  !
 --------------------------                            --------------------------
 ! Name  Definition              Value                                          !
 --------------------------------------------------------------------------------
 ! R1    R(1,2)                  2.7221                                         !
 ! R2    R(1,3)                  2.7438                                         !
 ! R3    R(1,36)                 2.6235                                         !
 ! R4    R(1,52)                 2.5416                                         !
 ! R5    R(4,5)                  1.2518                                         !
 ! R6    R(5,6)                  1.52                                           !
 ! R7    R(5,7)                  1.3615                                         !
 ! R8    R(6,8)                  1.5364                                         !
 ! R9    R(6,14)                 1.1111                                         !
 ! R10   R(6,15)                 1.1055                                         !
 ! R11   R(7,9)                  1.462                                          !
 ! R12   R(7,10)                 1.448                                          !
 ! R13   R(8,9)                  1.5433                                         !
 ! R14   R(8,16)                 1.1054                                         !
 ! R15   R(8,17)                 1.1077                                         !
 ! R16   R(9,18)                 1.1087                                         !
 ! R17   R(9,19)                 1.1134                                         !
 ! R18   R(10,11)                1.1055                                         !
 ! R19   R(10,12)                1.1099                                         !
 ! R20   R(10,13)                1.1103                                         !
 ! R21   R(12,33)                2.4008                                         !
 ! R22   R(14,20)                2.4564                                         !
 ! R23   R(14,27)                2.5376                                         !
 ! R24   R(19,29)                2.6898                                         !
 ! R25   R(20,21)                1.2529                                         !
 ! R26   R(20,63)                2.7446                                         !
 ! R27   R(21,22)                1.5182                                         !
 ! R28   R(21,23)                1.3621                                         !
 ! R29   R(22,24)                1.5355                                         !
 ! R30   R(22,30)                1.1113                                         !
 ! R31   R(22,31)                1.1069                                         !
 ! R32   R(23,25)                1.4644                                         !
 ! R33   R(23,26)                1.4482                                         !
 ! R34   R(24,25)                1.5412                                         !
 ! R35   R(24,32)                1.1049                                         !
 ! R36   R(24,33)                1.1087                                         !
 ! R37   R(25,34)                1.1081                                         !
 ! R38   R(25,35)                1.1135                                         !
 ! R39   R(26,27)                1.1052                                         !
 ! R40   R(26,28)                1.1109                                         !
 ! R41   R(26,29)                1.1087                                         !
 ! R42   R(31,36)                2.3171                                         !
 ! R43   R(36,37)                1.2588                                         !
 ! R44   R(37,38)                1.5158                                         !
 ! R45   R(37,39)                1.3562                                         !
 ! R46   R(38,40)                1.5359                                         !
 ! R47   R(38,46)                1.1128                                         !
 ! R48   R(38,47)                1.1063                                         !
 ! R49   R(39,41)                1.4649                                         !
 ! R50   R(39,42)                1.4481                                         !
 ! R51   R(40,41)                1.541                                          !
 ! R52   R(40,48)                1.1049                                         !
 ! R53   R(40,49)                1.108                                          !
 ! R54   R(41,50)                1.1082                                         !
 ! R55   R(41,51)                1.1135                                         !
 ! R56   R(42,43)                1.1047                                         !
 ! R57   R(42,44)                1.1108                                         !
 ! R58   R(42,45)                1.1085                                         !
 ! R59   R(52,53)                1.2583                                         !
 ! R60   R(53,54)                1.5166                                         !
 ! R61   R(53,55)                1.3567                                         !
 ! R62   R(54,56)                1.5348                                         !
 ! R63   R(54,62)                1.1121                                         !
 ! R64   R(54,63)                1.1057                                         !
 ! R65   R(55,57)                1.4642                                         !
 ! R66   R(55,58)                1.4477                                         !
 ! R67   R(56,57)                1.5414                                         !
 ! R68   R(56,64)                1.1048                                         !
 ! R69   R(56,65)                1.1073                                         !
 ! R70   R(57,66)                1.1086                                         !
 ! R71   R(57,67)                1.1135                                         !
 ! R72   R(58,59)                1.1049                                         !
 ! R73   R(58,60)                1.1104                                         !
 ! R74   R(58,61)                1.1086                                         !
 ! A1    A(2,1,3)               96.7618                                         !
 ! A2    A(2,1,36)              96.6356                                         !
 ! A3    A(2,1,52)              91.1757                                         !
 ! A4    A(3,1,36)              88.0439                                         !
 ! A5    A(3,1,52)              98.5846                                         !
 ! A6    A(4,5,6)              126.9084                                         !
 ! A7    A(4,5,7)              124.8288                                         !
 ! A8    A(6,5,7)              108.2246                                         !
 ! A9    A(5,6,8)              104.2755                                         !
 ! A10   A(5,6,14)             105.8658                                         !
 ! A11   A(5,6,15)             111.0085                                         !
 ! A12   A(8,6,14)             112.7335                                         !
 ! A13   A(8,6,15)             114.685                                          !
 ! A14   A(14,6,15)            107.9168                                         !
 ! A15   A(5,7,9)              113.7788                                         !
 ! A16   A(5,7,10)             123.6233                                         !
 ! A17   A(9,7,10)             122.2461                                         !
 ! A18   A(6,8,9)              104.1117                                         !
 ! A19   A(6,8,16)             113.4692                                         !
 ! A20   A(6,8,17)             110.0027                                         !
 ! A21   A(9,8,16)             111.8133                                         !
 ! A22   A(9,8,17)             109.5509                                         !
 ! A23   A(16,8,17)            107.845                                          !
 ! A24   A(7,9,8)              103.5359                                         !
 ! A25   A(7,9,18)             110.5089                                         !
 ! A26   A(7,9,19)             109.4537                                         !
 ! A27   A(8,9,18)             113.0091                                         !
 ! A28   A(8,9,19)             112.5618                                         !
 ! A29   A(18,9,19)            107.7234                                         !
 ! A30   A(7,10,11)            108.4478                                         !
 ! A31   A(7,10,12)            109.927                                          !
 ! A32   A(7,10,13)            111.206                                          !
 ! A33   A(11,10,12)           109.0625                                         !
 ! A34   A(11,10,13)           110.1331                                         !
 ! A35   A(12,10,13)           108.0424                                         !
 ! A36   A(10,12,33)           155.8608                                         !
 ! A37   A(6,14,20)            129.1267                                         !
 ! A38   A(6,14,27)            134.3326                                         !
 ! A39   A(20,14,27)            58.4205                                         !
 ! A40   A(9,19,29)            135.5095                                         !
 ! A41   A(14,20,21)           119.9457                                         !
 ! A42   A(14,20,63)           117.8156                                         !
 ! A43   A(21,20,63)           116.4784                                         !
 ! A44   A(20,21,22)           127.1056                                         !
 ! A45   A(20,21,23)           124.3652                                         !
 ! A46   A(22,21,23)           108.516                                          !
 ! A47   A(21,22,24)           104.1068                                         !
 ! A48   A(21,22,30)           107.1148                                         !
 ! A49   A(21,22,31)           110.6573                                         !
 ! A50   A(24,22,30)           113.1736                                         !
 ! A51   A(24,22,31)           115.0419                                         !
 ! A52   A(30,22,31)           106.5273                                         !
 ! A53   A(21,23,25)           113.1472                                         !
 ! A54   A(21,23,26)           123.5689                                         !
 ! A55   A(25,23,26)           122.1963                                         !
 ! A56   A(22,24,25)           103.9466                                         !
 ! A57   A(22,24,32)           113.56                                           !
 ! A58   A(22,24,33)           109.978                                          !
 ! A59   A(25,24,32)           112.0523                                         !
 ! A60   A(25,24,33)           109.4418                                         !
 ! A61   A(32,24,33)           107.8049                                         !
 ! A62   A(23,25,24)           103.1509                                         !
 ! A63   A(23,25,34)           110.2749                                         !
 ! A64   A(23,25,35)           109.8166                                         !
 ! A65   A(24,25,34)           113.2661                                         !
 ! A66   A(24,25,35)           112.4007                                         !
 ! A67   A(34,25,35)           107.8704                                         !
 ! A68   A(23,26,27)           108.1957                                         !
 ! A69   A(23,26,28)           110.8978                                         !
 ! A70   A(23,26,29)           110.523                                          !
 ! A71   A(27,26,28)           109.1726                                         !
 ! A72   A(27,26,29)           109.5703                                         !
 ! A73   A(28,26,29)           108.4633                                         !
 ! A74   A(14,27,26)           136.362                                          !
 ! A75   A(19,29,26)            98.0759                                         !
 ! A76   A(22,31,36)           159.8697                                         !
 ! A77   A(12,33,24)           132.2469                                         !
 ! A78   A(1,36,31)             81.7539                                         !
 ! A79   A(1,36,37)            125.7042                                         !
 ! A80   A(31,36,37)           114.0618                                         !
 ! A81   A(36,37,38)           127.2317                                         !
 ! A82   A(36,37,39)           124.0132                                         !
 ! A83   A(38,37,39)           108.7322                                         !
 ! A84   A(37,38,40)           103.8825                                         !
 ! A85   A(37,38,46)           106.3624                                         !
 ! A86   A(37,38,47)           110.8219                                         !
 ! A87   A(40,38,46)           113.309                                          !
 ! A88   A(40,38,47)           115.5275                                         !
 ! A89   A(46,38,47)           106.6155                                         !
 ! A90   A(37,39,41)           113.1521                                         !
 ! A91   A(37,39,42)           123.8799                                         !
 ! A92   A(41,39,42)           122.2631                                         !
 ! A93   A(38,40,41)           103.7979                                         !
 ! A94   A(38,40,48)           113.5287                                         !
 ! A95   A(38,40,49)           109.9611                                         !
 ! A96   A(41,40,48)           111.9698                                         !
 ! A97   A(41,40,49)           109.4864                                         !
 ! A98   A(48,40,49)           108.0276                                         !
 ! A99   A(39,41,40)           103.163                                          !
 ! A100  A(39,41,50)           110.2898                                         !
 ! A101  A(39,41,51)           109.6527                                         !
 ! A102  A(40,41,50)           113.3657                                         !
 ! A103  A(40,41,51)           112.4791                                         !
 ! A104  A(50,41,51)           107.8224                                         !
 ! A105  A(39,42,43)           108.3071                                         !
 ! A106  A(39,42,44)           110.834                                          !
 ! A107  A(39,42,45)           110.3821                                         !
 ! A108  A(43,42,44)           109.2245                                         !
 ! A109  A(43,42,45)           109.5538                                         !
 ! A110  A(44,42,45)           108.5226                                         !
 ! A111  A(1,52,53)            120.731                                          !
 ! A112  A(52,53,54)           127.2843                                         !
 ! A113  A(52,53,55)           124.0591                                         !
 ! A114  A(54,53,55)           108.6168                                         !
 ! A115  A(53,54,56)           103.7351                                         !
 ! A116  A(53,54,62)           107.1019                                         !
 ! A117  A(53,54,63)           110.5749                                         !
 ! A118  A(56,54,62)           112.3452                                         !
 ! A119  A(56,54,63)           115.4556                                         !
 ! A120  A(62,54,63)           107.3385                                         !
 ! A121  A(53,55,57)           113.2634                                         !
 ! A122  A(53,55,58)           123.7773                                         !
 ! A123  A(57,55,58)           122.4398                                         !
 ! A124  A(54,56,57)           103.8225                                         !
 ! A125  A(54,56,64)           113.7131                                         !
 ! A126  A(54,56,65)           109.387                                          !
 ! A127  A(57,56,64)           112.0448                                         !
 ! A128  A(57,56,65)           109.446                                          !
 ! A129  A(64,56,65)           108.3196                                         !
 ! A130  A(55,57,56)           103.1047                                         !
 ! A131  A(55,57,66)           110.1121                                         !
 ! A132  A(55,57,67)           109.9036                                         !
 ! A133  A(56,57,66)           113.2437                                         !
 ! A134  A(56,57,67)           112.6065                                         !
 ! A135  A(66,57,67)           107.808                                          !
 ! A136  A(55,58,59)           107.9546                                         !
 ! A137  A(55,58,60)           110.7306                                         !
 ! A138  A(55,58,61)           110.5214                                         !
 ! A139  A(59,58,60)           109.4483                                         !
 ! A140  A(59,58,61)           109.6606                                         !
 ! A141  A(60,58,61)           108.5137                                         !
 ! A142  A(20,63,54)           104.0795                                         !
 ! A143  L(36,1,52,2,-1)       187.8113                                         !
 ! A144  L(36,1,52,2,-2)       172.4044                                         !
 ! D1    D(2,1,36,31)          169.4842                                         !
 ! D2    D(2,1,36,37)           55.7067                                         !
 ! D3    D(3,1,36,31)           72.9018                                         !
 ! D4    D(3,1,36,37)          -40.8757                                         !
 ! D5    D(2,1,52,53)         -153.1264                                         !
 ! D6    D(3,1,52,53)          -56.1073                                         !
 ! D7    D(4,5,6,8)            167.0794                                         !
 ! D8    D(4,5,6,14)           -73.7858                                         !
 ! D9    D(4,5,6,15)            43.0695                                         !
 ! D10   D(7,5,6,8)            -15.096                                          !
 ! D11   D(7,5,6,14)           104.0388                                         !
 ! D12   D(7,5,6,15)          -139.1058                                         !
 ! D13   D(4,5,7,9)            177.7394                                         !
 ! D14   D(4,5,7,10)             4.4258                                         !
 ! D15   D(6,5,7,9)             -0.1416                                         !
 ! D16   D(6,5,7,10)          -173.4553                                         !
 ! D17   D(5,6,8,9)             23.4147                                         !
 ! D18   D(5,6,8,16)           145.2077                                         !
 ! D19   D(5,6,8,17)           -93.89                                           !
 ! D20   D(14,6,8,9)           -90.9452                                         !
 ! D21   D(14,6,8,16)           30.8477                                         !
 ! D22   D(14,6,8,17)          151.7501                                         !
 ! D23   D(15,6,8,9)           145.0213                                         !
 ! D24   D(15,6,8,16)          -93.1858                                         !
 ! D25   D(15,6,8,17)           27.7165                                         !
 ! D26   D(5,6,14,20)          -19.0755                                         !
 ! D27   D(5,6,14,27)         -100.5046                                         !
 ! D28   D(8,6,14,20)           94.317                                          !
 ! D29   D(8,6,14,27)           12.8879                                         !
 ! D30   D(15,6,14,20)        -137.9957                                         !
 ! D31   D(15,6,14,27)         140.5752                                         !
 ! D32   D(5,7,9,8)             15.1976                                         !
 ! D33   D(5,7,9,18)           136.4831                                         !
 ! D34   D(5,7,9,19)          -105.0388                                         !
 ! D35   D(10,7,9,8)          -171.385                                          !
 ! D36   D(10,7,9,18)          -50.0995                                         !
 ! D37   D(10,7,9,19)           68.3786                                         !
 ! D38   D(5,7,10,11)            8.6416                                         !
 ! D39   D(5,7,10,12)          127.7952                                         !
 ! D40   D(5,7,10,13)         -112.5988                                         !
 ! D41   D(9,7,10,11)         -164.121                                          !
 ! D42   D(9,7,10,12)          -44.9674                                         !
 ! D43   D(9,7,10,13)           74.6386                                         !
 ! D44   D(6,8,9,7)            -23.3192                                         !
 ! D45   D(6,8,9,18)          -142.9061                                         !
 ! D46   D(6,8,9,19)            94.7784                                         !
 ! D47   D(16,8,9,7)          -146.2031                                         !
 ! D48   D(16,8,9,18)           94.21                                           !
 ! D49   D(16,8,9,19)          -28.1056                                         !
 ! D50   D(17,8,9,7)            94.2982                                         !
 ! D51   D(17,8,9,18)          -25.2887                                         !
 ! D52   D(17,8,9,19)         -147.6043                                         !
 ! D53   D(7,9,19,29)          120.7916                                         !
 ! D54   D(8,9,19,29)            6.2377                                         !
 ! D55   D(18,9,19,29)        -119.0123                                         !
 ! D56   D(7,10,12,33)         -49.1335                                         !
 ! D57   D(11,10,12,33)         69.6429                                         !
 ! D58   D(13,10,12,33)       -170.6502                                         !
 ! D59   D(10,12,33,24)        -14.8363                                         !
 ! D60   D(6,14,20,21)         -64.3418                                         !
 ! D61   D(6,14,20,63)         143.3187                                         !
 ! D62   D(27,14,20,21)         59.5333                                         !
 ! D63   D(27,14,20,63)        -92.8063                                         !
 ! D64   D(6,14,27,26)          41.8808                                         !
 ! D65   D(20,14,27,26)        -73.9047                                         !
 ! D66   D(9,19,29,26)         -97.7609                                         !
 ! D67   D(14,20,21,22)        131.0813                                         !
 ! D68   D(14,20,21,23)        -50.394                                          !
 ! D69   D(63,20,21,22)        -76.2225                                         !
 ! D70   D(63,20,21,23)        102.3022                                         !
 ! D71   D(14,20,63,54)         17.4204                                         !
 ! D72   D(21,20,63,54)       -135.8746                                         !
 ! D73   D(20,21,22,24)       -168.0515                                         !
 ! D74   D(20,21,22,30)         71.8201                                         !
 ! D75   D(20,21,22,31)        -43.9142                                         !
 ! D76   D(23,21,22,24)         13.2327                                         !
 ! D77   D(23,21,22,30)       -106.8957                                         !
 ! D78   D(23,21,22,31)        137.3701                                         !
 ! D79   D(20,21,23,25)       -174.754                                          !
 ! D80   D(20,21,23,26)         -6.4717                                         !
 ! D81   D(22,21,23,25)          4.0053                                         !
 ! D82   D(22,21,23,26)        172.2875                                         !
 ! D83   D(21,22,24,25)        -24.0592                                         !
 ! D84   D(21,22,24,32)       -146.0867                                         !
 ! D85   D(21,22,24,33)         93.0184                                         !
 ! D86   D(30,22,24,25)         91.8944                                         !
 ! D87   D(30,22,24,32)        -30.1332                                         !
 ! D88   D(30,22,24,33)       -151.028                                          !
 ! D89   D(31,22,24,25)       -145.3176                                         !
 ! D90   D(31,22,24,32)         92.6548                                         !
 ! D91   D(31,22,24,33)        -28.24                                           !
 ! D92   D(21,22,31,36)         75.6769                                         !
 ! D93   D(24,22,31,36)       -166.7006                                         !
 ! D94   D(30,22,31,36)        -40.4228                                         !
 ! D95   D(21,23,25,24)        -19.3615                                         !
 ! D96   D(21,23,25,34)       -140.6097                                         !
 ! D97   D(21,23,25,35)        100.6499                                         !
 ! D98   D(26,23,25,24)        172.1736                                         !
 ! D99   D(26,23,25,34)         50.9255                                         !
 ! D100  D(26,23,25,35)        -67.815                                          !
 ! D101  D(21,23,26,27)         12.1057                                         !
 ! D102  D(21,23,26,28)       -107.6001                                         !
 ! D103  D(21,23,26,29)        132.0751                                         !
 ! D104  D(25,23,26,27)        179.357                                          !
 ! D105  D(25,23,26,28)         59.6512                                         !
 ! D106  D(25,23,26,29)        -60.6737                                         !
 ! D107  D(22,24,25,23)         26.0511                                         !
 ! D108  D(22,24,25,34)        145.2483                                         !
 ! D109  D(22,24,25,35)        -92.169                                          !
 ! D110  D(32,24,25,23)        149.0728                                         !
 ! D111  D(32,24,25,34)        -91.73                                           !
 ! D112  D(32,24,25,35)         30.8527                                         !
 ! D113  D(33,24,25,23)        -91.3993                                         !
 ! D114  D(33,24,25,34)         27.7979                                         !
 ! D115  D(33,24,25,35)        150.3806                                         !
 ! D116  D(22,24,33,12)        -14.1018                                         !
 ! D117  D(25,24,33,12)         99.4936                                         !
 ! D118  D(32,24,33,12)       -138.3964                                         !
 ! D119  D(23,26,27,14)         48.6051                                         !
 ! D120  D(28,26,27,14)        169.39                                           !
 ! D121  D(29,26,27,14)        -71.9599                                         !
 ! D122  D(23,26,29,19)        -43.086                                          !
 ! D123  D(27,26,29,19)         76.0542                                         !
 ! D124  D(28,26,29,19)       -164.8573                                         !
 ! D125  D(22,31,36,1)         -38.7328                                         !
 ! D126  D(22,31,36,37)         86.7954                                         !
 ! D127  D(1,36,37,38)         -22.6288                                         !
 ! D128  D(1,36,37,39)         155.4308                                         !
 ! D129  D(31,36,37,38)       -119.9526                                         !
 ! D130  D(31,36,37,39)         58.1071                                         !
 ! D131  D(36,37,38,40)       -167.0639                                         !
 ! D132  D(36,37,38,46)         73.1103                                         !
 ! D133  D(36,37,38,47)        -42.3889                                         !
 ! D134  D(39,37,38,40)         14.6344                                         !
 ! D135  D(39,37,38,46)       -105.1914                                         !
 ! D136  D(39,37,38,47)        139.3094                                         !
 ! D137  D(36,37,39,41)       -175.8757                                         !
 ! D138  D(36,37,39,42)         -5.3266                                         !
 ! D139  D(38,37,39,41)          2.493                                          !
 ! D140  D(38,37,39,42)        173.0422                                         !
 ! D141  D(37,38,40,41)        -24.8184                                         !
 ! D142  D(37,38,40,48)       -146.6279                                         !
 ! D143  D(37,38,40,49)         92.2239                                         !
 ! D144  D(46,38,40,41)         90.1718                                         !
 ! D145  D(46,38,40,48)        -31.6378                                         !
 ! D146  D(46,38,40,49)       -152.786                                          !
 ! D147  D(47,38,40,41)       -146.406                                          !
 ! D148  D(47,38,40,48)         91.7844                                         !
 ! D149  D(47,38,40,49)        -29.3638                                         !
 ! D150  D(37,39,41,40)        -18.4199                                         !
 ! D151  D(37,39,41,50)       -139.7995                                         !
 ! D152  D(37,39,41,51)        101.6112                                         !
 ! D153  D(42,39,41,40)        170.8573                                         !
 ! D154  D(42,39,41,50)         49.4777                                         !
 ! D155  D(42,39,41,51)        -69.1116                                         !
 ! D156  D(37,39,42,43)         11.1315                                         !
 ! D157  D(37,39,42,44)       -108.6697                                         !
 ! D158  D(37,39,42,45)        131.0658                                         !
 ! D159  D(41,39,42,43)       -179.1534                                         !
 ! D160  D(41,39,42,44)         61.0454                                         !
 ! D161  D(41,39,42,45)        -59.2191                                         !
 ! D162  D(38,40,41,39)         26.0213                                         !
 ! D163  D(38,40,41,50)        145.2946                                         !
 ! D164  D(38,40,41,51)        -92.0496                                         !
 ! D165  D(48,40,41,39)        148.8639                                         !
 ! D166  D(48,40,41,50)        -91.8629                                         !
 ! D167  D(48,40,41,51)         30.7929                                         !
 ! D168  D(49,40,41,39)        -91.352                                          !
 ! D169  D(49,40,41,50)         27.9213                                         !
 ! D170  D(49,40,41,51)        150.5771                                         !
 ! D171  D(1,52,53,54)          54.0479                                         !
 ! D172  D(1,52,53,55)        -128.5157                                         !
 ! D173  D(52,53,54,56)       -166.4141                                         !
 ! D174  D(52,53,54,62)         74.594                                          !
 ! D175  D(52,53,54,63)        -42.0561                                         !
 ! D176  D(55,53,54,56)         15.8268                                         !
 ! D177  D(55,53,54,62)       -103.1651                                         !
 ! D178  D(55,53,54,63)        140.1848                                         !
 ! D179  D(52,53,55,57)       -176.5996                                         !
 ! D180  D(52,53,55,58)         -4.7058                                         !
 ! D181  D(54,53,55,57)          1.2484                                         !
 ! D182  D(54,53,55,58)        173.1421                                         !
 ! D183  D(53,54,56,57)        -25.5446                                         !
 ! D184  D(53,54,56,64)       -147.5662                                         !
 ! D185  D(53,54,56,65)         91.2016                                         !
 ! D186  D(62,54,56,57)         89.7819                                         !
 ! D187  D(62,54,56,64)        -32.2397                                         !
 ! D188  D(62,54,56,65)       -153.4719                                         !
 ! D189  D(63,54,56,57)       -146.6775                                         !
 ! D190  D(63,54,56,64)         91.3008                                         !
 ! D191  D(63,54,56,65)        -29.9314                                         !
 ! D192  D(53,54,63,20)        -44.1966                                         !
 ! D193  D(56,54,63,20)         73.1625                                         !
 ! D194  D(62,54,63,20)       -160.7001                                         !
 ! D195  D(53,55,57,56)        -17.6568                                         !
 ! D196  D(53,55,57,66)       -138.7715                                         !
 ! D197  D(53,55,57,67)        102.6108                                         !
 ! D198  D(58,55,57,56)        170.3262                                         !
 ! D199  D(58,55,57,66)         49.2114                                         !
 ! D200  D(58,55,57,67)        -69.4062                                         !
 ! D201  D(53,55,58,59)          7.9569                                         !
 ! D202  D(53,55,58,60)       -111.8366                                         !
 ! D203  D(53,55,58,61)        127.886                                          !
 ! D204  D(57,55,58,59)        179.1272                                         !
 ! D205  D(57,55,58,60)         59.3338                                         !
 ! D206  D(57,55,58,61)        -60.9436                                         !
 ! D207  D(54,56,57,55)         26.0831                                         !
 ! D208  D(54,56,57,66)        145.0448                                         !
 ! D209  D(54,56,57,67)        -92.3132                                         !
 ! D210  D(64,56,57,55)        149.2068                                         !
 ! D211  D(64,56,57,66)        -91.8315                                         !
 ! D212  D(64,56,57,67)         30.8105                                         !
 ! D213  D(65,56,57,55)        -90.6217                                         !
 ! D214  D(65,56,57,66)         28.34                                           !
 ! D215  D(65,56,57,67)        150.982                                          !
 --------------------------------------------------------------------------------
 Stoichiometry    C20H36Cl2N4O4Pb
 Framework group  C1[X(C20H36Cl2N4O4Pb)]
 Deg. of freedom   195
 Full point group                 C1      NOp   1
 Largest Abelian subgroup         C1      NOp   1
 Largest concise Abelian subgroup C1      NOp   1
                         Standard orientation:                         
 ---------------------------------------------------------------------
 Center     Atomic      Atomic             Coordinates (Angstroms)
 Number     Number       Type             X           Y           Z
 ---------------------------------------------------------------------
      1         82           0        0.433485   -1.130691    0.363711
      2         17           0        1.659281   -3.256292    1.542295
      3         17           0        1.210159   -1.694341   -2.206782
      4          8           0       -0.320632    0.292285    2.535595
      5          6           0       -1.115155    1.245310    2.370047
      6          6           0       -2.629519    1.163941    2.267328
      7          7           0       -0.746192    2.545097    2.202014
      8          6           0       -3.097427    2.620827    2.405320
      9          6           0       -1.870086    3.452451    1.976460
     10          6           0        0.630941    2.981072    2.101451
     11          1           0        1.276420    2.086742    2.026572
     12          1           0        0.765528    3.602438    1.191732
     13          1           0        0.924238    3.591494    2.981327
     14          1           0       -2.843442    0.737455    1.263844
     15          1           0       -3.041614    0.472906    3.025443
     16          1           0       -3.987639    2.857092    1.794012
     17          1           0       -3.343457    2.841245    3.462611
     18          1           0       -1.745864    4.379989    2.571026
     19          1           0       -1.903899    3.740831    0.901609
     20          8           0       -1.389637    0.620355   -0.712698
     21          6           0       -1.011809    1.674537   -1.274490
     22          6           0        0.405281    2.039691   -1.678851
     23          7           0       -1.843202    2.685614   -1.651009
     24          6           0        0.321776    3.532518   -2.028585
     25          6           0       -1.159957    3.745857   -2.395071
     26          6           0       -3.287029    2.607633   -1.569196
     27          1           0       -3.551082    1.719751   -0.966396
     28          1           0       -3.736466    2.508948   -2.580322
     29          1           0       -3.698888    3.518230   -1.089236
     30          1           0        0.672124    1.401070   -2.548359
     31          1           0        1.119171    1.786809   -0.871560
     32          1           0        0.999192    3.832651   -2.848204
     33          1           0        0.573772    4.144629   -1.139149
     34          1           0       -1.547322    4.738772   -2.091698
     35          1           0       -1.349171    3.623883   -3.485598
     36          8           0        2.467992    0.518178    0.521289
     37          6           0        3.621943    0.306780    0.065033
     38          6           0        4.257307   -1.036083   -0.236021
     39          7           0        4.494861    1.287558   -0.274608
     40          6           0        5.742751   -0.703388   -0.440479
     41          6           0        5.732241    0.776700   -0.869354
     42          6           0        4.169574    2.698552   -0.259456
     43          1           0        3.199980    2.825615    0.254392
     44          1           0        4.090553    3.096885   -1.293350
     45          1           0        4.952422    3.269449    0.278987
     46          1           0        3.761083   -1.418545   -1.155731
     47          1           0        4.037999   -1.763939    0.567758
     48          1           0        6.240028   -1.346959   -1.188394
     49          1           0        6.288916   -0.806596    0.518058
     50          1           0        6.603790    1.349159   -0.494257
     51          1           0        5.694503    0.899187   -1.975418
     52          8           0       -1.796318   -2.350506    0.362423
     53          6           0       -2.675811   -2.081695   -0.496408
     54          6           0       -2.516884   -2.079956   -2.004703
     55          7           0       -3.965691   -1.786799   -0.196465
     56          6           0       -3.774234   -1.354244   -2.502787
     57          6           0       -4.804160   -1.589534   -1.380441
     58          6           0       -4.513196   -1.840621    1.142639
     59          1           0       -3.678061   -2.012074    1.845415
     60          1           0       -5.248674   -2.667556    1.233633
     61          1           0       -5.021856   -0.887957    1.393113
     62          1           0       -2.484646   -3.142478   -2.331370
     63          1           0       -1.555210   -1.617100   -2.293554
     64          1           0       -4.137587   -1.715820   -3.481518
     65          1           0       -3.563502   -0.270611   -2.588479
     66          1           0       -5.486415   -0.729610   -1.225412
     67          1           0       -5.430104   -2.493404   -1.556523
 ---------------------------------------------------------------------
 Rotational constants (GHZ):           0.1324627           0.0935263           0.0768705
 General basis read from cards:  (5D, 7F)
 ======================================================================================================
                                       Pseudopotential Parameters
 ======================================================================================================
  Center     Atomic      Valence      Angular      Power
  Number     Number     Electrons     Momentum     of R      Exponent        Coefficient   SO-Coeffient
 ======================================================================================================
    1         82            4
                                      G and up 
                                                     0      376.5803786       -0.17896050    0.00000000
                                                     1       86.4840014      -54.39723370    0.00000000
                                                     2       26.6784276     -199.70617590    0.00000000
                                                     2        9.4261986      -79.12239410    0.00000000
                                                     2        2.7101719      -24.98690200    0.00000000
                                                     2        0.8792031       -4.43979390    0.00000000
                                      S - G
                                                     0      132.4248796        2.81153860    0.00000000
                                                     1       47.2376044       65.03672050    0.00000000
                                                     2       17.6312727      212.78685450    0.00000000
                                                     2        5.4744712       72.10531750    0.00000000
                                                     2        1.2634856       33.01409400    0.00000000
                                                     2        0.7651447       -5.77084610    0.00000000
                                      P - G
                                                     0       67.8966454        4.87549110    0.00000000
                                                     1       24.9898225       63.91481020    0.00000000
                                                     2       10.7052939      148.10643580    0.00000000
                                                     2        3.2792568       47.31063010    0.00000000
                                                     2        0.8452522       21.03067020    0.00000000
                                                     2        0.6416245       -7.09307720    0.00000000
                                      D - G
                                                     0       68.8336005        3.21613880    0.00000000
                                                     1       24.2815874       55.73860860    0.00000000
                                                     2        9.4532762      121.41683510    0.00000000
                                                     2        2.4788185       19.34560640    0.00000000
                                                     2        2.4789161       15.36751680    0.00000000
                                                     2        0.5551738        6.12987240    0.00000000
                                      F - G
                                                     0      128.1021322        4.13536820    0.00000000
                                                     1       54.8029154       67.51284460    0.00000000
                                                     2       24.5529308      258.73731070    0.00000000
                                                     2        8.1144792      113.24782640    0.00000000
                                                     2        1.6931290       34.16802010    0.00000000
                                                     2        0.7670500       -6.55319560    0.00000000
    2         17
                                   No pseudopotential on this center.
    3         17
                                   No pseudopotential on this center.
    4          8
                                   No pseudopotential on this center.
    5          6
                                   No pseudopotential on this center.
    6          6
                                   No pseudopotential on this center.
    7          7
                                   No pseudopotential on this center.
    8          6
                                   No pseudopotential on this center.
    9          6
                                   No pseudopotential on this center.
   10          6
                                   No pseudopotential on this center.
   11          1
                                   No pseudopotential on this center.
   12          1
                                   No pseudopotential on this center.
   13          1
                                   No pseudopotential on this center.
   14          1
                                   No pseudopotential on this center.
   15          1
                                   No pseudopotential on this center.
   16          1
                                   No pseudopotential on this center.
   17          1
                                   No pseudopotential on this center.
   18          1
                                   No pseudopotential on this center.
   19          1
                                   No pseudopotential on this center.
   20          8
                                   No pseudopotential on this center.
   21          6
                                   No pseudopotential on this center.
   22          6
                                   No pseudopotential on this center.
   23          7
                                   No pseudopotential on this center.
   24          6
                                   No pseudopotential on this center.
   25          6
                                   No pseudopotential on this center.
   26          6
                                   No pseudopotential on this center.
   27          1
                                   No pseudopotential on this center.
   28          1
                                   No pseudopotential on this center.
   29          1
                                   No pseudopotential on this center.
   30          1
                                   No pseudopotential on this center.
   31          1
                                   No pseudopotential on this center.
   32          1
                                   No pseudopotential on this center.
   33          1
                                   No pseudopotential on this center.
   34          1
                                   No pseudopotential on this center.
   35          1
                                   No pseudopotential on this center.
   36          8
                                   No pseudopotential on this center.
   37          6
                                   No pseudopotential on this center.
   38          6
                                   No pseudopotential on this center.
   39          7
                                   No pseudopotential on this center.
   40          6
                                   No pseudopotential on this center.
   41          6
                                   No pseudopotential on this center.
   42          6
                                   No pseudopotential on this center.
   43          1
                                   No pseudopotential on this center.
   44          1
                                   No pseudopotential on this center.
   45          1
                                   No pseudopotential on this center.
   46          1
                                   No pseudopotential on this center.
   47          1
                                   No pseudopotential on this center.
   48          1
                                   No pseudopotential on this center.
   49          1
                                   No pseudopotential on this center.
   50          1
                                   No pseudopotential on this center.
   51          1
                                   No pseudopotential on this center.
   52          8
                                   No pseudopotential on this center.
   53          6
                                   No pseudopotential on this center.
   54          6
                                   No pseudopotential on this center.
   55          7
                                   No pseudopotential on this center.
   56          6
                                   No pseudopotential on this center.
   57          6
                                   No pseudopotential on this center.
   58          6
                                   No pseudopotential on this center.
   59          1
                                   No pseudopotential on this center.
   60          1
                                   No pseudopotential on this center.
   61          1
                                   No pseudopotential on this center.
   62          1
                                   No pseudopotential on this center.
   63          1
                                   No pseudopotential on this center.
   64          1
                                   No pseudopotential on this center.
   65          1
                                   No pseudopotential on this center.
   66          1
                                   No pseudopotential on this center.
   67          1
                                   No pseudopotential on this center.
 ======================================================================================================
 There are  1606 symmetry adapted cartesian basis functions of A   symmetry.
 There are  1420 symmetry adapted basis functions of A   symmetry.
  1420 basis functions,  2268 primitive gaussians,  1606 cartesian basis functions
   127 alpha electrons      127 beta electrons
       nuclear repulsion energy      3762.9198119700 Hartrees.
 NAtoms=   67 NActive=   67 NUniq=   67 SFac= 1.00D+00 NAtFMM=   60 NAOKFM=T Big=T
 Integral buffers will be    131072 words long.
 Raffenetti 1 integral format.
 Two-electron integral symmetry is turned on.
 Nuclear repulsion after empirical dispersion term =     3762.8375828247 Hartrees.
 Using the following non-standard input for PCM:
 eps=32.55
 --- end of non-standard input.
 ------------------------------------------------------------------------------
 Polarizable Continuum Model (PCM)
 =================================
 Model                : PCM.
 Atomic radii         : UFF (Universal Force Field).
 Polarization charges : Total charges.
 Charge compensation  : None.
 Solution method      : On-the-fly selection.
 Cavity type          : Scaled VdW (van der Waals Surface) (Alpha=1.100).
 Cavity algorithm     : GePol (No added spheres)
                        Default sphere list used, NSphG=   67.
                        Lebedev-Laikov grids with approx.  5.0 points / Ang**2.
                        Smoothing algorithm: York/Karplus (Gamma=1.0000).
                        Polarization charges: spherical gaussians, with
                                              point-specific exponents (IZeta= 3).
                        Self-potential: point-specific (ISelfS= 7).
                        Self-field    : sphere-specific E.n sum rule (ISelfD= 2).
 Solvent              : Water, Eps=  32.550000 Eps(inf)=   1.777849
 ------------------------------------------------------------------------------
 One-electron integrals computed using PRISM.
   1 Symmetry operations used in ECPInt.
 ECPInt:  NShTT=  137550 NPrTT=  534528 LenC2=  106803 LenP2D=  247551.
 LDataN:  DoStor=T MaxTD1= 7 Len=  274
 NBasis=  1420 RedAO= T EigKep=  1.78D-04  NBF=  1420
 NBsUse=  1420 1.00D-06 EigRej= -1.00D+00 NBFU=  1420
 Defaulting to unpruned grid for atomic number  82.
 Initial guess from the checkpoint file:  "02-PbCl2_nmp.chk"
 B after Tr=     0.000000   -0.000000   -0.000000
         Rot=    1.000000    0.000000    0.000000   -0.000000 Ang=   0.00 deg.
 Requested convergence on RMS density matrix=1.00D-08 within 128 cycles.
 Requested convergence on MAX density matrix=1.00D-06.
 Requested convergence on             energy=1.00D-06.
 No special actions if energy rises.
 Defaulting to unpruned grid for atomic number  82.
 Defaulting to unpruned grid for atomic number  82.
 Defaulting to unpruned grid for atomic number  82.
 Defaulting to unpruned grid for atomic number  82.
 Defaulting to unpruned grid for atomic number  82.
 Inv3:  Mode=1 IEnd=    61020300.
 Iteration    1 A*A^-1 deviation from unit magnitude is 3.77D-15 for   1306.
 Iteration    1 A*A^-1 deviation from orthogonality  is 2.66D-15 for   3549   1507.
 Iteration    1 A^-1*A deviation from unit magnitude is 3.77D-15 for   1306.
 Iteration    1 A^-1*A deviation from orthogonality  is 3.39D-15 for   3824   3805.
 Error on total polarization charges =  0.02264
 SCF Done:  E(RCAM-B3LYP) =  -2227.81823067     A.U. after   12 cycles
            NFock= 12  Conv=0.23D-08     -V/T= 2.0066
 DoSCS=F DFT=T ScalE2(SS,OS)=  1.000000  1.000000
 ExpMin= 5.98D-02 ExpMax= 4.56D+05 ExpMxC= 1.44D+03 IAcc=3 IRadAn=         5 AccDes= 0.00D+00
 HarFok:  IExCor=  205 AccDes= 0.00D+00 IRadAn=         5 IDoV=-2 UseB2=F ITyADJ=14
 ICtDFT= 12500011 ScaDFX=  1.000000  1.000000  1.000000  1.000000
 Defaulting to unpruned grid for atomic number  82.
 GSVD:  LWork=       -1748 too small for GESVD, short by        7790 words or        7790 for optimal perf.
 Range of M.O.s used for correlation:    39  1420
 NBasis=  1420 NAE=   127 NBE=   127 NFC=    38 NFV=     0
 NROrb=   1382 NOA=    89 NOB=    89 NVA=  1293 NVB=  1293

 **** Warning!!: The largest alpha MO coefficient is  0.11327297D+02

 NEqPCM:  Using non-equilibrium solvation (IEInf=1, Eps=  32.5500, EpsInf=   1.7778)
 Inv3:  Mode=1 IEnd=    61020300.
 Iteration    1 A*A^-1 deviation from unit magnitude is 4.11D-15 for   1482.
 Iteration    1 A*A^-1 deviation from orthogonality  is 2.22D-15 for   3552    727.
 Iteration    1 A^-1*A deviation from unit magnitude is 3.66D-15 for   1482.
 Iteration    1 A^-1*A deviation from orthogonality  is 3.61D-15 for   3824   3805.
 Orbital symmetries:
       Occupied  (A) (A) (A) (A) (A) (A) (A) (A) (A) (A) (A) (A)
                 (A) (A) (A) (A) (A) (A) (A) (A) (A) (A) (A) (A)
                 (A) (A) (A) (A) (A) (A) (A) (A) (A) (A) (A) (A)
                 (A) (A) (A) (A) (A) (A) (A) (A) (A) (A) (A) (A)
                 (A) (A) (A) (A) (A) (A) (A) (A) (A) (A) (A) (A)
                 (A) (A) (A) (A) (A) (A) (A) (A) (A) (A) (A) (A)
                 (A) (A) (A) (A) (A) (A) (A) (A) (A) (A) (A) (A)
                 (A) (A) (A) (A) (A) (A) (A) (A) (A) (A) (A) (A)
                 (A) (A) (A) (A) (A) (A) (A) (A) (A) (A) (A) (A)
                 (A) (A) (A) (A) (A) (A) (A) (A) (A) (A) (A) (A)
                 (A) (A) (A) (A) (A) (A) (A)
       Virtual   (A) (A) (A) (A) (A) (A) (A) (A) (A) (A) (A) (A)
                 (A) (A) (A) (A) (A) (A) (A) (A) (A) (A) (A) (A)
                 (A) (A) (A) (A) (A) (A) (A) (A) (A) (A) (A) (A)
                 (A) (A) (A) (A) (A) (A) (A) (A) (A) (A) (A) (A)
                 (A) (A) (A) (A) (A) (A) (A) (A) (A) (A) (A) (A)
                 (A) (A) (A) (A) (A) (A) (A) (A) (A) (A) (A) (A)
                 (A) (A) (A) (A) (A) (A) (A) (A) (A) (A) (A) (A)
                 (A) (A) (A) (A) (A) (A) (A) (A) (A) (A) (A) (A)
                 (A) (A) (A) (A) (A) (A) (A) (A) (A) (A) (A) (A)
                 (A) (A) (A) (A) (A) (A) (A) (A) (A) (A) (A) (A)
                 (A) (A) (A) (A) (A) (A) (A) (A) (A) (A) (A) (A)
                 (A) (A) (A) (A) (A) (A) (A) (A) (A) (A) (A) (A)
                 (A) (A) (A) (A) (A) (A) (A) (A) (A) (A) (A) (A)
                 (A) (A) (A) (A) (A) (A) (A) (A) (A) (A) (A) (A)
                 (A) (A) (A) (A) (A) (A) (A) (A) (A) (A) (A) (A)
                 (A) (A) (A) (A) (A) (A) (A) (A) (A) (A) (A) (A)
                 (A) (A) (A) (A) (A) (A) (A) (A) (A) (A) (A) (A)
                 (A) (A) (A) (A) (A) (A) (A) (A) (A) (A) (A) (A)
                 (A) (A) (A) (A) (A) (A) (A) (A) (A) (A) (A) (A)
                 (A) (A) (A) (A) (A) (A) (A) (A) (A) (A) (A) (A)
                 (A) (A) (A) (A) (A) (A) (A) (A) (A) (A) (A) (A)
                 (A) (A) (A) (A) (A) (A) (A) (A) (A) (A) (A) (A)
                 (A) (A) (A) (A) (A) (A) (A) (A) (A) (A) (A) (A)
                 (A) (A) (A) (A) (A) (A) (A) (A) (A) (A) (A) (A)
                 (A) (A) (A) (A) (A) (A) (A) (A) (A) (A) (A) (A)
                 (A) (A) (A) (A) (A) (A) (A) (A) (A) (A) (A) (A)
                 (A) (A) (A) (A) (A) (A) (A) (A) (A) (A) (A) (A)
                 (A) (A) (A) (A) (A) (A) (A) (A) (A) (A) (A) (A)
                 (A) (A) (A) (A) (A) (A) (A) (A) (A) (A) (A) (A)
                 (A) (A) (A) (A) (A) (A) (A) (A) (A) (A) (A) (A)
                 (A) (A) (A) (A) (A) (A) (A) (A) (A) (A) (A) (A)
                 (A) (A) (A) (A) (A) (A) (A) (A) (A) (A) (A) (A)
                 (A) (A) (A) (A) (A) (A) (A) (A) (A) (A) (A) (A)
                 (A) (A) (A) (A) (A) (A) (A) (A) (A) (A) (A) (A)
                 (A) (A) (A) (A) (A) (A) (A) (A) (A) (A) (A) (A)
                 (A) (A) (A) (A) (A) (A) (A) (A) (A) (A) (A) (A)
                 (A) (A) (A) (A) (A) (A) (A) (A) (A) (A) (A) (A)
                 (A) (A) (A) (A) (A) (A) (A) (A) (A) (A) (A) (A)
                 (A) (A) (A) (A) (A) (A) (A) (A) (A) (A) (A) (A)
                 (A) (A) (A) (A) (A) (A) (A) (A) (A) (A) (A) (A)
                 (A) (A) (A) (A) (A) (A) (A) (A) (A) (A) (A) (A)
                 (A) (A) (A) (A) (A) (A) (A) (A) (A) (A) (A) (A)
                 (A) (A) (A) (A) (A) (A) (A) (A) (A) (A) (A) (A)
                 (A) (A) (A) (A) (A) (A) (A) (A) (A) (A) (A) (A)
                 (A) (A) (A) (A) (A) (A) (A) (A) (A) (A) (A) (A)
                 (A) (A) (A) (A) (A) (A) (A) (A) (A) (A) (A) (A)
                 (A) (A) (A) (A) (A) (A) (A) (A) (A) (A) (A) (A)
                 (A) (A) (A) (A) (A) (A) (A) (A) (A) (A) (A) (A)
                 (A) (A) (A) (A) (A) (A) (A) (A) (A) (A) (A) (A)
                 (A) (A) (A) (A) (A) (A) (A) (A) (A) (A) (A) (A)
                 (A) (A) (A) (A) (A) (A) (A) (A) (A) (A) (A) (A)
                 (A) (A) (A) (A) (A) (A) (A) (A) (A) (A) (A) (A)
                 (A) (A) (A) (A) (A) (A) (A) (A) (A) (A) (A) (A)
                 (A) (A) (A) (A) (A) (A) (A) (A) (A) (A) (A) (A)
                 (A) (A) (A) (A) (A) (A) (A) (A) (A) (A) (A) (A)
                 (A) (A) (A) (A) (A) (A) (A) (A) (A) (A) (A) (A)
                 (A) (A) (A) (A) (A) (A) (A) (A) (A) (A) (A) (A)
                 (A) (A) (A) (A) (A) (A) (A) (A) (A) (A) (A) (A)
                 (A) (A) (A) (A) (A) (A) (A) (A) (A) (A) (A) (A)
                 (A) (A) (A) (A) (A) (A) (A) (A) (A) (A) (A) (A)
                 (A) (A) (A) (A) (A) (A) (A) (A) (A) (A) (A) (A)
                 (A) (A) (A) (A) (A) (A) (A) (A) (A) (A) (A) (A)
                 (A) (A) (A) (A) (A) (A) (A) (A) (A) (A) (A) (A)
                 (A) (A) (A) (A) (A) (A) (A) (A) (A) (A) (A) (A)
                 (A) (A) (A) (A) (A) (A) (A) (A) (A) (A) (A) (A)
                 (A) (A) (A) (A) (A) (A) (A) (A) (A) (A) (A) (A)
                 (A) (A) (A) (A) (A) (A) (A) (A) (A) (A) (A) (A)
                 (A) (A) (A) (A) (A) (A) (A) (A) (A) (A) (A) (A)
                 (A) (A) (A) (A) (A) (A) (A) (A) (A) (A) (A) (A)
                 (A) (A) (A) (A) (A) (A) (A) (A) (A) (A) (A) (A)
                 (A) (A) (A) (A) (A) (A) (A) (A) (A) (A) (A) (A)
                 (A) (A) (A) (A) (A) (A) (A) (A) (A) (A) (A) (A)
                 (A) (A) (A) (A) (A) (A) (A) (A) (A) (A) (A) (A)
                 (A) (A) (A) (A) (A) (A) (A) (A) (A) (A) (A) (A)
                 (A) (A) (A) (A) (A) (A) (A) (A) (A) (A) (A) (A)
                 (A) (A) (A) (A) (A) (A) (A) (A) (A) (A) (A) (A)
                 (A) (A) (A) (A) (A) (A) (A) (A) (A) (A) (A) (A)
                 (A) (A) (A) (A) (A) (A) (A) (A) (A) (A) (A) (A)
                 (A) (A) (A) (A) (A) (A) (A) (A) (A) (A) (A) (A)
                 (A) (A) (A) (A) (A) (A) (A) (A) (A) (A) (A) (A)
                 (A) (A) (A) (A) (A) (A) (A) (A) (A) (A) (A) (A)
                 (A) (A) (A) (A) (A) (A) (A) (A) (A) (A) (A) (A)
                 (A) (A) (A) (A) (A) (A) (A) (A) (A) (A) (A) (A)
                 (A) (A) (A) (A) (A) (A) (A) (A) (A) (A) (A) (A)
                 (A) (A) (A) (A) (A) (A) (A) (A) (A) (A) (A) (A)
                 (A) (A) (A) (A) (A) (A) (A) (A) (A) (A) (A) (A)
                 (A) (A) (A) (A) (A) (A) (A) (A) (A) (A) (A) (A)
                 (A) (A) (A) (A) (A) (A) (A) (A) (A) (A) (A) (A)
                 (A) (A) (A) (A) (A) (A) (A) (A) (A) (A) (A) (A)
                 (A) (A) (A) (A) (A) (A) (A) (A) (A) (A) (A) (A)
                 (A) (A) (A) (A) (A) (A) (A) (A) (A) (A) (A) (A)
                 (A) (A) (A) (A) (A) (A) (A) (A) (A) (A) (A) (A)
                 (A) (A) (A) (A) (A) (A) (A) (A) (A) (A) (A) (A)
                 (A) (A) (A) (A) (A) (A) (A) (A) (A) (A) (A) (A)
                 (A) (A) (A) (A) (A) (A) (A) (A) (A) (A) (A) (A)
                 (A) (A) (A) (A) (A) (A) (A) (A) (A) (A) (A) (A)
                 (A) (A) (A) (A) (A) (A) (A) (A) (A) (A) (A) (A)
                 (A) (A) (A) (A) (A) (A) (A) (A) (A) (A) (A) (A)
                 (A) (A) (A) (A) (A) (A) (A) (A) (A) (A) (A) (A)
                 (A) (A) (A) (A) (A) (A) (A) (A) (A) (A) (A) (A)
                 (A) (A) (A) (A) (A) (A) (A) (A) (A) (A) (A) (A)
                 (A) (A) (A) (A) (A) (A) (A) (A) (A) (A) (A) (A)
                 (A) (A) (A) (A) (A) (A) (A) (A) (A) (A) (A) (A)
                 (A) (A) (A) (A) (A) (A) (A) (A) (A) (A) (A) (A)
                 (A) (A) (A) (A) (A) (A) (A) (A) (A) (A) (A) (A)
                 (A) (A) (A) (A) (A) (A) (A) (A) (A) (A) (A) (A)
                 (A) (A) (A) (A) (A) (A) (A) (A) (A) (A) (A) (A)
                 (A) (A) (A) (A) (A) (A) (A) (A) (A)
    40 initial guesses have been made.
 Convergence on wavefunction:    0.001000000000000
 Iteration     1 Dimension    40 NMult     0 NNew     40
 CISAX will form    40 AO SS matrices at one time.
 Defaulting to unpruned grid for atomic number  82.
 Defaulting to unpruned grid for atomic number  82.
 Defaulting to unpruned grid for atomic number  82.
 Defaulting to unpruned grid for atomic number  82.
 Defaulting to unpruned grid for atomic number  82.
 New state      5 was old state      7
 New state      7 was old state     18
 New state      8 was old state     11
 New state      9 was old state     25
 New state     10 was old state     26
 Iteration     2 Dimension    60 NMult    40 NNew     20
 New state      7 was old state     10
 New state      8 was old state      9
 New state      9 was old state      7
 New state     10 was old state      8
 Iteration     3 Dimension    80 NMult    60 NNew     20
 New state      2 was old state      3
 New state      3 was old state      2
 New state      5 was old state      6
 New state      6 was old state      5
 Iteration     4 Dimension   100 NMult    80 NNew     20
 New state      4 was old state      5
 New state      5 was old state      4
 New state      6 was old state      7
 New state      7 was old state      6
 Iteration     5 Dimension   120 NMult   100 NNew     20
 Iteration     6 Dimension   140 NMult   120 NNew     20
 Iteration     7 Dimension   158 NMult   140 NNew     18
 Iteration     8 Dimension   168 NMult   158 NNew     10
 Iteration     9 Dimension   170 NMult   168 NNew      2
 ***********************************************************************
 Excited states from <AA,BB:AA,BB> singles matrix:
 ***********************************************************************
 
 Ground to excited state transition densities written to RWF  633
 Ground to excited state transition electric dipole moments (Au):
       state          X           Y           Z        Dip. S.      Osc.
         1         0.8726      0.4930     -0.4607      1.2168      0.1726
         2         0.6557     -0.5092     -0.2095      0.7331      0.1046
         3         0.2659      0.2361      0.1984      0.1658      0.0240
         4        -0.7650     -0.4369     -0.3952      0.9323      0.1357
         5         0.2400     -1.1052     -0.7422      1.8299      0.2701
         6         0.8683      0.3977     -0.3191      1.0139      0.1536
         7         1.1211     -1.2745      0.6962      3.3660      0.5248
         8        -0.6317      0.1062     -0.1676      0.4384      0.0713
         9        -0.5400     -0.1573      0.1647      0.3435      0.0561
        10        -1.2433     -0.7177      0.3523      2.1849      0.3606
 Ground to excited state transition velocity dipole moments (Au):
       state          X           Y           Z        Dip. S.      Osc.
         1        -0.1582     -0.0776      0.0771      0.0370      0.1159
         2        -0.1209      0.0959      0.0273      0.0246      0.0765
         3        -0.0461     -0.0421     -0.0254      0.0045      0.0139
         4         0.1482      0.0825      0.0606      0.0324      0.0990
         5        -0.0442      0.2130      0.1209      0.0620      0.1866
         6        -0.1704     -0.0656      0.0557      0.0364      0.1068
         7        -0.2181      0.2548     -0.1319      0.1299      0.3703
         8         0.1493     -0.0256      0.0314      0.0239      0.0653
         9         0.1393      0.0409     -0.0125      0.0212      0.0578
        10         0.3168      0.1842     -0.0931      0.1430      0.3850
 Ground to excited state transition magnetic dipole moments (Au):
       state          X           Y           Z
         1         0.0983     -0.4192     -0.7712
         2        -0.2651      0.4603     -0.8782
         3        -0.4987      0.6967     -0.2815
         4        -0.0333      0.6107      0.3955
         5        -1.8395     -0.4193     -0.2450
         6         0.3405     -0.5334     -0.0433
         7         0.2917     -0.5574     -0.5477
         8         0.0572      0.8558      0.1818
         9        -1.3360      0.0854     -0.2139
        10        -0.0510      0.2101      2.0744
 Ground to excited state transition velocity quadrupole moments (Au):
       state          XX          YY          ZZ          XY          XZ          YZ
         1         0.1327      0.2450     -0.0887      0.1886      0.1845      0.0320
         2         0.1474      0.2119      0.0232     -0.0355      0.0868      0.0504
         3         0.1815     -0.3061      0.1652      0.0595     -0.0704     -0.0570
         4        -0.3754      0.3620     -0.0737     -0.2717     -0.1300      0.0275
         5        -0.1026      0.6143     -0.2322      0.0053     -0.0043      0.5075
         6        -0.2003      0.0923     -0.0205     -0.2713      0.3511     -0.1402
         7         0.9686     -0.3738      0.2730      0.6169     -0.1024      0.3339
         8         3.8160     -0.6466     -0.5015      2.4013     -1.0340      0.0789
         9        -0.8258      0.3258     -0.1959      0.3541     -0.4454      1.3110
        10        -0.0481      0.8354      0.0619     -0.2244     -0.0107     -0.6636
 <0|del|b> * <b|rxdel|0> + <0|del|b> * <b|delr+rdel|0>
 Rotatory Strengths (R) in cgs (10**-40 erg-esu-cm/Gauss)
       state          XX          YY          ZZ    R(velocity)    E-M Angle
         1         3.1819   -157.2247     12.8183    -47.0748      104.49
         2        17.8964      4.8343    149.7084     57.4797       71.07
         3       -43.3922     55.6995     -9.7892      0.8393       89.27
         4       111.0170     64.0862     49.5864     74.8965       58.05
         5      -187.4663     45.7490     21.7001    -40.0058       94.55
         6        62.9807    -33.3266   -108.8158    -26.3872      102.13
         7      -189.0828     25.9008   -240.2954   -134.4924      116.35
         8        47.1402    -71.3755      1.9078     -7.4425       93.26
         9        28.7916      5.2338   -553.8657   -173.2801      155.63
        10      -188.0449   -629.2523    329.6526   -162.5482      102.50
 1/2[<0|r|b>*<b|rxdel|0> + (<0|rxdel|b>*<b|r|0>)*]
 Rotatory Strengths (R) in cgs (10**-40 erg-esu-cm/Gauss)
       state          XX          YY          ZZ     R(length)
         1       -60.6706    146.1362   -251.2706    -55.2683
         2       122.9354    165.7439   -130.1100     52.8564
         3        93.7630   -116.3409     39.4944      5.6388
         4       -17.9911    188.6767    110.5411     93.7423
         5       312.2017   -327.7255   -128.5640    -48.0293
         6      -209.0671    150.0033     -9.7696    -22.9445
         7      -231.2710   -502.3549    269.6394   -154.6621
         8        25.5337    -64.2637     21.5491     -5.7270
         9      -510.1981      9.5030     24.9097   -158.5951
        10       -44.8789    106.6102   -516.7812   -151.6833
  1/2[<0|del|b>*<b|r|0> + (<0|r|b>*<b|del|0>)*] (Au)
       state          X           Y           Z        Dip. S.   Osc.(frdel)
         1        -0.1380     -0.0382     -0.0355      0.2118      0.1412
         2        -0.0793     -0.0488     -0.0057      0.1338      0.0892
         3        -0.0123     -0.0100     -0.0050      0.0272      0.0182
         4        -0.1133     -0.0360     -0.0239      0.1733      0.1155
         5        -0.0106     -0.2354     -0.0898      0.3358      0.2239
         6        -0.1479     -0.0261     -0.0178      0.1918      0.1278
         7        -0.2446     -0.3248     -0.0918      0.6611      0.4408
         8        -0.0943     -0.0027     -0.0053      0.1023      0.0682
         9        -0.0752     -0.0064     -0.0021      0.0837      0.0558
        10        -0.3939     -0.1322     -0.0328      0.5589      0.3726

 Excitation energies and oscillator strengths:
 
 Excited State   1:      Singlet-A      5.7894 eV  214.16 nm  f=0.1726  <S**2>=0.000
     115 -> 129       -0.10593
     115 -> 130        0.10266
     117 -> 128        0.16356
     127 -> 128        0.52574
     127 -> 129       -0.20865
 This state for optimization and/or second-order correction.
 Total Energy, E(TD-HF/TD-DFT) =  -2227.60547421    
 Copying the excited state density for this state as the 1-particle RhoCI density.
 
 Excited State   2:      Singlet-A      5.8235 eV  212.90 nm  f=0.1046  <S**2>=0.000
     114 -> 129        0.12253
     114 -> 130       -0.11390
     114 -> 131       -0.15812
     116 -> 129        0.12771
     116 -> 131       -0.17607
     119 -> 129        0.11227
[...]
 Alpha virt. eigenvalues --    2.50565   2.51193   2.51353   2.52218   2.53068
 Alpha virt. eigenvalues --    2.53874   2.54387   2.54810   2.55832   2.55905
 Alpha virt. eigenvalues --    2.56454   2.56883   2.57257   2.57636   2.58395
 Alpha virt. eigenvalues --    2.58687   2.59183   2.59985   2.60263   2.60883
 Alpha virt. eigenvalues --    2.61573   2.61907   2.62978   2.63307   2.63603
 Alpha virt. eigenvalues --    2.64342   2.64463   2.64837   2.65085   2.65829
 Alpha virt. eigenvalues --    2.66017   2.66174   2.66488   2.66555   2.66874
 Alpha virt. eigenvalues --    2.67099   2.67688   2.68095   2.68642   2.68975
 Alpha virt. eigenvalues --    2.69362   2.69795   2.70580   2.71062   2.71604
 Alpha virt. eigenvalues --    2.71738   2.72385   2.72610   2.72759   2.73181
 Alpha virt. eigenvalues --    2.73730   2.73911   2.74459   2.74725   2.75174
 Alpha virt. eigenvalues --    2.75713   2.76504   2.76647   2.77623   2.78244
 Alpha virt. eigenvalues --    2.78648   2.78858   2.79376   2.79923   2.80254
 Alpha virt. eigenvalues --    2.80508   2.80702   2.81030   2.81885   2.82205
 Alpha virt. eigenvalues --    2.82653   2.83048   2.84351   2.84870   2.85629
 Alpha virt. eigenvalues --    2.86129   2.86350   2.87405   2.87834   2.88033
 Alpha virt. eigenvalues --    2.88598   2.89032   2.89228   2.89400   2.89752
 Alpha virt. eigenvalues --    2.90221   2.90692   2.91333   2.92065   2.92984
 Alpha virt. eigenvalues --    2.93060   2.94052   2.94331   2.94699   2.94992
 Alpha virt. eigenvalues --    2.95765   2.96004   2.96411   2.96640   2.97030
 Alpha virt. eigenvalues --    2.97162   2.97747   2.98237   2.99075   2.99785
 Alpha virt. eigenvalues --    2.99990   3.00324   3.00919   3.01316   3.01909
 Alpha virt. eigenvalues --    3.02109   3.02496   3.02987   3.03265   3.03553
 Alpha virt. eigenvalues --    3.03666   3.04003   3.04233   3.04410   3.04766
 Alpha virt. eigenvalues --    3.05236   3.05416   3.06131   3.06660   3.06924
 Alpha virt. eigenvalues --    3.07062   3.07351   3.07836   3.08017   3.08501
 Alpha virt. eigenvalues --    3.08569   3.08809   3.09740   3.10047   3.10111
 Alpha virt. eigenvalues --    3.10468   3.10699   3.11206   3.11458   3.11997
 Alpha virt. eigenvalues --    3.12505   3.12777   3.13158   3.13348   3.13905
 Alpha virt. eigenvalues --    3.13958   3.14231   3.14667   3.14974   3.15248
 Alpha virt. eigenvalues --    3.15439   3.16131   3.16236   3.16847   3.17287
 Alpha virt. eigenvalues --    3.17624   3.17818   3.18750   3.19274   3.19376
 Alpha virt. eigenvalues --    3.19590   3.19726   3.20844   3.20902   3.21309
 Alpha virt. eigenvalues --    3.21868   3.22426   3.22732   3.23024   3.23383
 Alpha virt. eigenvalues --    3.23790   3.23981   3.24318   3.24650   3.25476
 Alpha virt. eigenvalues --    3.25687   3.26055   3.26294   3.26785   3.27522
 Alpha virt. eigenvalues --    3.27854   3.28139   3.28414   3.28688   3.28876
 Alpha virt. eigenvalues --    3.29423   3.30287   3.30798   3.31034   3.31778
 Alpha virt. eigenvalues --    3.32191   3.32450   3.32652   3.33287   3.33611
 Alpha virt. eigenvalues --    3.34095   3.34184   3.34727   3.35054   3.35230
 Alpha virt. eigenvalues --    3.35336   3.35680   3.35770   3.36066   3.36482
 Alpha virt. eigenvalues --    3.37304   3.37495   3.38160   3.38676   3.39396
 Alpha virt. eigenvalues --    3.39546   3.39881   3.39987   3.40577   3.40636
 Alpha virt. eigenvalues --    3.40968   3.41567   3.42190   3.42576   3.43252
 Alpha virt. eigenvalues --    3.43481   3.44051   3.44623   3.45085   3.45275
 Alpha virt. eigenvalues --    3.45791   3.46191   3.46781   3.47066   3.47188
 Alpha virt. eigenvalues --    3.47776   3.48260   3.48425   3.48643   3.48808
 Alpha virt. eigenvalues --    3.49453   3.49763   3.50428   3.50856   3.51108
 Alpha virt. eigenvalues --    3.51422   3.51903   3.52073   3.52184   3.52514
 Alpha virt. eigenvalues --    3.52917   3.53509   3.53820   3.54456   3.55112
 Alpha virt. eigenvalues --    3.55578   3.56456   3.56523   3.57008   3.57224
 Alpha virt. eigenvalues --    3.57646   3.58065   3.58667   3.59020   3.59252
 Alpha virt. eigenvalues --    3.59724   3.60354   3.60485   3.60933   3.61137
 Alpha virt. eigenvalues --    3.61582   3.62021   3.62221   3.62869   3.63771
 Alpha virt. eigenvalues --    3.64216   3.64830   3.65803   3.65977   3.66718
 Alpha virt. eigenvalues --    3.66982   3.67792   3.67891   3.68356   3.69075
 Alpha virt. eigenvalues --    3.69911   3.70481   3.71315   3.71492   3.72020
 Alpha virt. eigenvalues --    3.72354   3.72679   3.72790   3.73430   3.73586
 Alpha virt. eigenvalues --    3.74078   3.74150   3.74374   3.75164   3.75719
 Alpha virt. eigenvalues --    3.76038   3.76645   3.77293   3.77761   3.78290
 Alpha virt. eigenvalues --    3.78528   3.79630   3.80080   3.80285   3.80490
 Alpha virt. eigenvalues --    3.81047   3.81553   3.81865   3.82154   3.82587
 Alpha virt. eigenvalues --    3.83083   3.83749   3.84323   3.84699   3.85056
 Alpha virt. eigenvalues --    3.85139   3.86266   3.86414   3.86881   3.87273
 Alpha virt. eigenvalues --    3.88105   3.88423   3.88558   3.89280   3.89727
 Alpha virt. eigenvalues --    3.90639   3.91434   3.91523   3.92001   3.92153
 Alpha virt. eigenvalues --    3.93268   3.93796   3.94561   3.94852   3.95050
 Alpha virt. eigenvalues --    3.95635   3.96102   3.96484   3.97278   3.97741
 Alpha virt. eigenvalues --    3.98240   3.98602   3.98781   3.99028   3.99399
 Alpha virt. eigenvalues --    4.00012   4.00041   4.00923   4.01416   4.01650
 Alpha virt. eigenvalues --    4.02600   4.02966   4.03145   4.03275   4.03834
 Alpha virt. eigenvalues --    4.04219   4.04984   4.05124   4.05562   4.05879
 Alpha virt. eigenvalues --    4.06421   4.06643   4.06781   4.07463   4.07638
 Alpha virt. eigenvalues --    4.08218   4.08925   4.09225   4.09653   4.09919
 Alpha virt. eigenvalues --    4.10626   4.10989   4.11524   4.11807   4.11866
 Alpha virt. eigenvalues --    4.12198   4.12681   4.13543   4.13732   4.14186
 Alpha virt. eigenvalues --    4.14654   4.15255   4.15701   4.15865   4.16209
 Alpha virt. eigenvalues --    4.16288   4.17092   4.17599   4.18165   4.18481
 Alpha virt. eigenvalues --    4.18878   4.19485   4.20195   4.20309   4.20683
 Alpha virt. eigenvalues --    4.21043   4.21721   4.22074   4.22489   4.23112
 Alpha virt. eigenvalues --    4.23288   4.24266   4.24423   4.25331   4.25625
 Alpha virt. eigenvalues --    4.26069   4.26487   4.26907   4.27148   4.27387
 Alpha virt. eigenvalues --    4.27803   4.28352   4.28866   4.29411   4.29700
 Alpha virt. eigenvalues --    4.29803   4.30118   4.30614   4.30965   4.31402
 Alpha virt. eigenvalues --    4.32244   4.32376   4.32505   4.33386   4.33619
 Alpha virt. eigenvalues --    4.34510   4.34717   4.35061   4.35481   4.36263
 Alpha virt. eigenvalues --    4.36553   4.37531   4.37659   4.38133   4.38469
 Alpha virt. eigenvalues --    4.38785   4.39029   4.39331   4.40006   4.40296
 Alpha virt. eigenvalues --    4.40972   4.41276   4.41796   4.42151   4.42769
 Alpha virt. eigenvalues --    4.43196   4.43898   4.45576   4.45850   4.46308
 Alpha virt. eigenvalues --    4.46610   4.47840   4.48045   4.49571   4.49765
 Alpha virt. eigenvalues --    4.50271   4.50801   4.51173   4.51797   4.51952
 Alpha virt. eigenvalues --    4.52257   4.53969   4.55082   4.55492   4.55686
 Alpha virt. eigenvalues --    4.55835   4.56754   4.57094   4.57947   4.58946
 Alpha virt. eigenvalues --    4.59648   4.60317   4.61486   4.62683   4.63863
 Alpha virt. eigenvalues --    4.64737   4.65823   4.66773   4.69227   4.69473
 Alpha virt. eigenvalues --    4.69912   4.70472   4.71119   4.72059   4.72267
 Alpha virt. eigenvalues --    4.74248   4.74365   4.75185   4.75752   4.76066
 Alpha virt. eigenvalues --    4.77358   4.77848   4.78483   4.78632   4.79740
 Alpha virt. eigenvalues --    4.80345   4.80681   4.82309   4.82430   4.83393
 Alpha virt. eigenvalues --    4.84240   4.84596   4.84783   4.86031   4.86488
 Alpha virt. eigenvalues --    4.86586   4.86907   4.87464   4.88392   4.88819
 Alpha virt. eigenvalues --    4.88945   4.89182   4.89928   4.90031   4.90765
 Alpha virt. eigenvalues --    4.92894   4.94297   4.94462   4.94914   4.96627
 Alpha virt. eigenvalues --    4.97014   4.97378   4.97770   4.97888   4.99061
 Alpha virt. eigenvalues --    4.99117   4.99675   4.99711   5.00822   5.01312
 Alpha virt. eigenvalues --    5.01703   5.01808   5.02227   5.02604   5.02923
 Alpha virt. eigenvalues --    5.03762   5.04015   5.04653   5.04986   5.06050
 Alpha virt. eigenvalues --    5.06446   5.06842   5.07563   5.07709   5.09251
 Alpha virt. eigenvalues --    5.10279   5.10618   5.12025   5.12773   5.13389
 Alpha virt. eigenvalues --    5.13513   5.13785   5.14278   5.14619   5.15104
 Alpha virt. eigenvalues --    5.15177   5.15509   5.15796   5.15956   5.17749
 Alpha virt. eigenvalues --    5.18193   5.18611   5.18998   5.19559   5.20143
 Alpha virt. eigenvalues --    5.20387   5.20626   5.20893   5.21109   5.21238
 Alpha virt. eigenvalues --    5.21850   5.22237   5.22811   5.23058   5.23504
 Alpha virt. eigenvalues --    5.24235   5.25122   5.25478   5.25639   5.26128
 Alpha virt. eigenvalues --    5.26239   5.26637   5.26733   5.27636   5.28206
 Alpha virt. eigenvalues --    5.28439   5.29281   5.30018   5.30404   5.30593
 Alpha virt. eigenvalues --    5.31338   5.31822   5.32177   5.32691   5.33089
 Alpha virt. eigenvalues --    5.33223   5.33527   5.33904   5.34573   5.36473
 Alpha virt. eigenvalues --    5.37165   5.37533   5.38550   5.38989   5.39627
 Alpha virt. eigenvalues --    5.39982   5.40474   5.41467   5.41602   5.42245
 Alpha virt. eigenvalues --    5.42951   5.43779   5.44452   5.45129   5.45485
 Alpha virt. eigenvalues --    5.45955   5.46462   5.46796   5.47165   5.47734
 Alpha virt. eigenvalues --    5.48337   5.48798   5.49289   5.50792   5.51166
 Alpha virt. eigenvalues --    5.51281   5.52526   5.52921   5.54738   5.54880
 Alpha virt. eigenvalues --    5.56653   5.57630   5.58864   5.59572   5.60373
 Alpha virt. eigenvalues --    5.60885   5.61374   5.61983   5.62673   5.63754
 Alpha virt. eigenvalues --    5.66021   5.67552   5.67997   5.69283   5.73895
 Alpha virt. eigenvalues --    5.73996   5.75228   5.76157   5.76307   5.76421
 Alpha virt. eigenvalues --    5.76969   5.77585   5.77985   5.78531   5.79836
 Alpha virt. eigenvalues --    5.81266   5.90243   5.91011   5.92107   5.92771
 Alpha virt. eigenvalues --    5.93010   5.93686   5.93799   5.95622   5.95826
 Alpha virt. eigenvalues --    5.96517   5.96955   5.97668   5.97782   5.98438
 Alpha virt. eigenvalues --    5.99035   6.00064   6.01295   6.01777   6.02286
 Alpha virt. eigenvalues --    6.02739   6.03852   6.04501   6.05628   6.05873
 Alpha virt. eigenvalues --    6.07250   6.08093   6.08576   6.08795   6.10495
 Alpha virt. eigenvalues --    6.11049   6.12542   6.13037   6.13553   6.16137
 Alpha virt. eigenvalues --    6.18669   6.19183   6.24804   6.25138   6.27216
 Alpha virt. eigenvalues --    6.27859   6.41800   6.43362   6.43921   6.46593
 Alpha virt. eigenvalues --    6.46834   6.50705   6.51261   6.54938   6.57081
 Alpha virt. eigenvalues --    6.57945   6.58511   6.61036   6.81468   6.81963
 Alpha virt. eigenvalues --    6.83695   6.83931   6.92722   6.94871   6.94947
 Alpha virt. eigenvalues --    7.00120   7.10999   7.13645   7.14689   7.15797
 Alpha virt. eigenvalues --    7.16736   7.17539   7.20368   7.23008   9.55088
 Alpha virt. eigenvalues --    9.58190   9.62056   9.93743  10.54061  11.51589
 Alpha virt. eigenvalues --   11.55136  11.57203  11.74211  11.91149  11.92882
 Alpha virt. eigenvalues --   11.98388  12.13318  12.29056  12.34460  12.39320
 Alpha virt. eigenvalues --   12.55676  12.73427  12.75719  12.84777  12.93213
 Alpha virt. eigenvalues --   13.00572  13.03443  13.16964  13.22061  13.61076
 Alpha virt. eigenvalues --   13.64740  13.66431  13.73423
          Condensed to atoms (all electrons):
 Mulliken charges:
               1
     1  Pb   1.248314
     2  Cl  -0.767476
     3  Cl  -0.751768
     4  O   -0.476133
     5  C    0.201373
     6  C   -0.179355
     7  N   -0.012776
     8  C   -0.198729
     9  C   -0.112253
    10  C   -0.233011
    11  H    0.119852
    12  H    0.108635
    13  H    0.121145
    14  H    0.116848
    15  H    0.125128
    16  H    0.115900
    17  H    0.114271
    18  H    0.116792
    19  H    0.107085
    20  O   -0.485961
    21  C    0.238188
    22  C   -0.182060
    23  N   -0.035537
    24  C   -0.200134
    25  C   -0.095127
    26  C   -0.256369
    27  H    0.134261
    28  H    0.127688
    29  H    0.128249
    30  H    0.127774
    31  H    0.102421
    32  H    0.121164
    33  H    0.116358
    34  H    0.115823
    35  H    0.112880
    36  O   -0.503639
    37  C    0.272967
    38  C   -0.204886
    39  N   -0.032350
    40  C   -0.188739
    41  C   -0.079842
    42  C   -0.219380
    43  H    0.125481
    44  H    0.113927
    45  H    0.118255
    46  H    0.125408
    47  H    0.126984
    48  H    0.113193
    49  H    0.109406
    50  H    0.110069
    51  H    0.103527
    52  O   -0.516924
    53  C    0.262501
    54  C   -0.179525
    55  N   -0.025415
    56  C   -0.200086
    57  C   -0.097704
    58  C   -0.235469
    59  H    0.124080
    60  H    0.120772
    61  H    0.120485
    62  H    0.125549
    63  H    0.119070
    64  H    0.116428
    65  H    0.117589
    66  H    0.112318
    67  H    0.112490
 Sum of Mulliken charges =  -0.00000
 Mulliken charges with hydrogens summed into heavy atoms:
               1
     1  Pb   1.248314
     2  Cl  -0.767476
     3  Cl  -0.751768
     4  O   -0.476133
     5  C    0.201373
     6  C    0.062621
     7  N   -0.012776
     8  C    0.031442
     9  C    0.111624
    10  C    0.116621
    20  O   -0.485961
    21  C    0.238188
    22  C    0.048135
    23  N   -0.035537
    24  C    0.037388
    25  C    0.133575
    26  C    0.133828
    36  O   -0.503639
    37  C    0.272967
    38  C    0.047506
    39  N   -0.032350
    40  C    0.033859
    41  C    0.133754
    42  C    0.138284
    52  O   -0.516924
    53  C    0.262501
    54  C    0.065093
    55  N   -0.025415
    56  C    0.033931
    57  C    0.127105
    58  C    0.129868
 Electronic spatial extent (au):  <R**2>=          15509.9929
 Charge=             -0.0000 electrons
 Dipole moment (field-independent basis, Debye):
    X=             -9.5412    Y=             22.4288    Z=             -4.8619  Tot=             24.8540
 Quadrupole moment (field-independent basis, Debye-Ang):
   XX=           -131.7183   YY=           -211.4781   ZZ=           -220.2311
   XY=             24.7864   XZ=             -1.9206   YZ=              6.0993
 Traceless Quadrupole moment (field-independent basis, Debye-Ang):
   XX=             56.0909   YY=            -23.6689   ZZ=            -32.4219
   XY=             24.7864   XZ=             -1.9206   YZ=              6.0993
 Octapole moment (field-independent basis, Debye-Ang**2):
  XXX=             86.3979  YYY=             94.7160  ZZZ=             47.4658  XYY=            -77.9412
  XXY=             -1.2577  XXZ=            -28.5148  XZZ=            -53.4094  YZZ=             38.6908
  YYZ=            -31.9190  XYZ=             -5.0992
 Hexadecapole moment (field-independent basis, Debye-Ang**3):
 XXXX=          -8855.8147 YYYY=          -6278.6009 ZZZZ=          -3699.7094 XXXY=            342.4025
 XXXZ=            -60.5224 YYYX=            146.8940 YYYZ=             90.4468 ZZZX=             46.2868
 ZZZY=            -71.6396 XXYY=          -2630.3073 XXZZ=          -2297.9834 YYZZ=          -1600.3991
 XXYZ=             25.7641 YYXZ=            -12.5398 ZZXY=             48.8740
 N-N= 3.762837582825D+03 E-N=-1.276005319241D+04  KE= 2.213153107207D+03
 Unable to Open any file for archive entry.
 1\1\GINC-MPCL003\SP\RCAM-B3LYP TD-FC\Gen\C20H36Cl2N4O4Pb1\EDBA4025\19-
 Apr-2021\0\\# cam-b3lyp/gen pseudo=read TD=NStates=10 Geom=Check Guess
 =Read empiricaldispersion=gd3bj SCRF=(read)\\PbCl2_nmp\\0,1\Pb,0,-0.27
 78791478,-1.234329297,-0.3344392758\Cl,0,-1.148008559,-3.5892949413,-1
 .3864985305\Cl,0,-1.0500603666,-1.7307180301,2.2512307505\O,0,0.336113
 9132,0.1338532651,-2.5842663429\C,0,0.9804452082,1.2008327404,-2.46883
 86105\C,0,2.4866980577,1.3467076454,-2.3260338351\N,0,0.4242342641,2.4
 417996943,-2.402173828\C,0,2.7459217734,2.8434164089,-2.5566033782\C,0
 ,1.3989321943,3.5154191933,-2.2161370803\C,0,-1.0036138442,2.679500610
 8,-2.3643596772\H,0,-1.5167954144,1.7081834362,-2.2408042493\H,0,-1.25
 54100322,3.3344628713,-1.504463487\H,0,-1.3520579324,3.1805703949,-3.2
 919017321\H,0,2.7262837119,1.0240157828,-1.2901280478\H,0,3.0179778532
 ,0.6733326388,-3.0234552953\H,0,3.5726769698,3.2465982963,-1.943483468
 2\H,0,2.9925284288,3.0256807612,-3.6210019577\H,0,1.163054453,4.373173
 6728,-2.8778668904\H,0,1.3558689895,3.8771341608,-1.1640349278\O,0,1.2
 399950894,0.8305295752,0.6560185253\C,0,0.6971726135,1.8541839607,1.13
 26128953\C,0,-0.7700607767,2.0365732267,1.4775018835\N,0,1.3627511286,
 2.9979681298,1.4551337552\C,0,-0.912242188,3.5458263071,1.7219601467\C
 ,0,0.5109592706,3.9956080578,2.1060819229\C,0,2.8048063675,3.124589057
 5,1.412070977\H,0,3.212667778,2.2458750689,0.8801537537\H,0,3.23027456
 52,3.1601156606,2.4376545585\H,0,3.0978742868,4.0509452371,0.878074242
 4\H,0,-0.9713343407,1.4258506048,2.3839196402\H,0,-1.4135868176,1.6293
 697631,0.6741555916\H,0,-1.6521441161,3.7990154336,2.5024639207\H,0,-1
 .2197591242,4.0539039454,0.7857068014\H,0,0.7622350572,5.0115310183,1.
 7417639707\H,0,0.6797357659,3.9757875183,3.2065601436\O,0,-2.520818844
 8,0.0881908709,-0.6553472176\C,0,-3.6470829518,-0.256989798,-0.2116806
 429\C,0,-4.0936013765,-1.6544445995,0.1695585127\N,0,-4.6618600362,0.6
 07594205,0.0372993843\C,0,-5.6172465021,-1.527413168,0.3158518102\C,0,
 -5.832413648,-0.0359949738,0.6384686046\C,0,-4.5411939921,2.0465889121
 ,-0.0707653805\H,0,-3.5833529228,2.2779524262,-0.5700736187\H,0,-4.553
 9016987,2.5206464924,0.9337032931\H,0,-5.3794671496,2.4606593516,-0.66
 61977727\H,0,-3.5783024631,-1.8984166494,1.1252406264\H,0,-3.746263789
 1,-2.3951529632,-0.5751821782\H,0,-6.0417633206,-2.184553774,1.0961064
 096\H,0,-6.1112778664,-1.7727226285,-0.6451359297\H,0,-6.764017387,0.3
 777346969,0.2037891731\H,0,-5.8489162043,0.1646172017,1.733588835\O,0,
 2.1020754385,-2.115502621,-0.1954496701\C,0,2.9054469279,-1.6651330319
 ,0.6619418561\C,0,2.6984452931,-1.5852065576,2.1622669468\N,0,4.149106
 709,-1.2073490618,0.3713139495\C,0,3.8221577149,-0.6532827528,2.636042
 8098\C,0,4.9114401354,-0.8117270727,1.5570946327\C,0,4.742372724,-1.27
 10619699,-0.9477136743\H,0,3.9638431083,-1.6084252536,-1.6553999523\H,
 0,5.5910455741,-1.9869914622,-0.9628254851\H,0,5.1176459304,-0.2737586
 825,-1.2536475171\H,0,2.8076388803,-2.6168514518,2.562876785\H,0,1.671
 5405669,-1.2481666721,2.3954190907\H,0,4.2010983326,-0.8919181695,3.64
 6059622\H,0,3.4560576411,0.3916904259,2.6395881952\H,0,5.4685481933,0.
 1255710476,1.3569009411\H,0,5.653981903,-1.6015441863,1.8112846966\\Ve
 rsion=ES64L-G16RevC.01\State=1-A\HF=-2227.8182307\RMSD=2.296e-09\PG=C0
 1 [X(C20H36Cl2N4O4Pb1)]\\@
 The archive entry for this job was punched.


 OUR LITTLE SYSTEMS HAVE THEIR DAY,    
   THEY HAVE THEIR DAY AND CEASE TO BE.
   THEY ARE BUT BROKEN LIGHTS OF THEE, 
 AND THOU, OH LORD, ART MORE THAN THEY.
          -------------------          
 LET KNOWLEDGE GROW FROM MORE TO MORE, 
   BUT MORE OF REVERENCE IN US DWELL.  
   THAT MIND AND SOUL, ACCORDING WELL, 
 MAY MAKE ONE MUSIC AS BEFORE.....     
          -------------------          
                    LORD TENNYSON      
 Job cpu time:       1 days 18 hours 12 minutes 35.0 seconds.
 Elapsed time:       0 days  8 hours 27 minutes 34.7 seconds.
 File lengths (MBytes):  RWF=   8583 Int=      0 D2E=      0 Chk=    696 Scr=      1
 Normal termination of Gaussian 16 at Mon Apr 19 18:10:34 2021.
