 Entering Gaussian System, Link 0=g16
 Input=02-PbCl2_PC_23595899.com
 Output=02-PbCl2_PC_23595899.log
 Initial command:
 /cm/shared/uniol/software/gaussian/g16.c01/g16/l1.exe "/scratch/23595899_edba4025/Gau-24598.inp" -scrdir="/scratch/23595899_edba4025/"
 Entering Link 1 = /cm/shared/uniol/software/gaussian/g16.c01/g16/l1.exe PID=     24599.
  
 Copyright (c) 1988-2019, Gaussian, Inc.  All Rights Reserved.
  
 This is part of the Gaussian(R) 16 program.  It is based on
 the Gaussian(R) 09 system (copyright 2009, Gaussian, Inc.),
 the Gaussian(R) 03 system (copyright 2003, Gaussian, Inc.),
 the Gaussian(R) 98 system (copyright 1998, Gaussian, Inc.),
 the Gaussian(R) 94 system (copyright 1995, Gaussian, Inc.),
 the Gaussian 92(TM) system (copyright 1992, Gaussian, Inc.),
 the Gaussian 90(TM) system (copyright 1990, Gaussian, Inc.),
 the Gaussian 88(TM) system (copyright 1988, Gaussian, Inc.),
 the Gaussian 86(TM) system (copyright 1986, Carnegie Mellon
 University), and the Gaussian 82(TM) system (copyright 1983,
 Carnegie Mellon University). Gaussian is a federally registered
 trademark of Gaussian, Inc.
  
 This software contains proprietary and confidential information,
 including trade secrets, belonging to Gaussian, Inc.
  
 This software is provided under written license and may be
 used, copied, transmitted, or stored only in accord with that
 written license.
  
 The following legend is applicable only to US Government
 contracts under FAR:
  
                    RESTRICTED RIGHTS LEGEND
  
 Use, reproduction and disclosure by the US Government is
 subject to restrictions as set forth in subparagraphs (a)
 and (c) of the Commercial Computer Software - Restricted
 Rights clause in FAR 52.227-19.
  
 Gaussian, Inc.
 340 Quinnipiac St., Bldg. 40, Wallingford CT 06492
  
  
 ---------------------------------------------------------------
 Warning -- This program may not be used in any manner that
 competes with the business of Gaussian, Inc. or will provide
 assistance to any competitor of Gaussian, Inc.  The licensee
 of this program is prohibited from giving any competitor of
 Gaussian, Inc. access to this program.  By using this program,
 the user acknowledges that Gaussian, Inc. is engaged in the
 business of creating and licensing software in the field of
 computational chemistry and represents and warrants to the
 licensee that it is not a competitor of Gaussian, Inc. and that
 it will not use this program in any manner prohibited above.
 ---------------------------------------------------------------
  

 Cite this work as:
 Gaussian 16, Revision C.01,
 M. J. Frisch, G. W. Trucks, H. B. Schlegel, G. E. Scuseria, 
 M. A. Robb, J. R. Cheeseman, G. Scalmani, V. Barone, 
 G. A. Petersson, H. Nakatsuji, X. Li, M. Caricato, A. V. Marenich, 
 J. Bloino, B. G. Janesko, R. Gomperts, B. Mennucci, H. P. Hratchian, 
 J. V. Ortiz, A. F. Izmaylov, J. L. Sonnenberg, D. Williams-Young, 
 F. Ding, F. Lipparini, F. Egidi, J. Goings, B. Peng, A. Petrone, 
 T. Henderson, D. Ranasinghe, V. G. Zakrzewski, J. Gao, N. Rega, 
 G. Zheng, W. Liang, M. Hada, M. Ehara, K. Toyota, R. Fukuda, 
 J. Hasegawa, M. Ishida, T. Nakajima, Y. Honda, O. Kitao, H. Nakai, 
 T. Vreven, K. Throssell, J. A. Montgomery, Jr., J. E. Peralta, 
 F. Ogliaro, M. J. Bearpark, J. J. Heyd, E. N. Brothers, K. N. Kudin, 
 V. N. Staroverov, T. A. Keith, R. Kobayashi, J. Normand, 
 K. Raghavachari, A. P. Rendell, J. C. Burant, S. S. Iyengar, 
 J. Tomasi, M. Cossi, J. M. Millam, M. Klene, C. Adamo, R. Cammi, 
 J. W. Ochterski, R. L. Martin, K. Morokuma, O. Farkas, 
 J. B. Foresman, and D. J. Fox, Gaussian, Inc., Wallingford CT, 2019.
 
 ******************************************
 Gaussian 16:  ES64L-G16RevC.01  3-Jul-2019
                16-Apr-2021 
 ******************************************
 %oldChk=01-PbCl2_PC
 %chk=02-PbCl2_PC
 %mem=16GB
 %NProcShared=5
 Will use up to    5 processors via shared memory.
 Copying data from "01-PbCl2_PC.chk" to current chk file "02-PbCl2_PC.chk"
 IOpt=  2 FromEx=T IUOpen= 4 IOptOp= 5 NList=   0 IFRang= 0 IUIn= 4 IUOut= 2.
 ----------------------------------------------------------------------
 # cam-b3lyp/gen pseudo=read TD=NStates=10 Geom=Check Guess=Read empiri
 caldispersion=gd3bj SCRF=(read)
 ----------------------------------------------------------------------
 1/29=2,38=1,40=2,172=1/1;
 2/12=2,40=1/2;
 3/5=7,11=9,14=-4,16=1,17=8,25=1,30=1,70=2203,74=-40,116=-2,124=41/1,2,3,8;
 4/5=1/1;
 5/5=2,38=6/2;
 8/6=1,10=1,108=10/1;
 9/41=10,42=1,70=2/14;
 6/7=2,8=2,9=2,10=2/1;
 99/5=1,9=1/99;
 --------
 PbCl2_PC
 --------
 Structure from the checkpoint file:  "02-PbCl2_PC.chk"
 Charge =  0 Multiplicity = 1
 No Z-Matrix found in chk file; cartesian coordinates used.
  Pb                                               -0.175574288561     -0.190872364944     -0.240001347255
  Cl                                               -1.788739103320      0.136757504966      1.822294025729
  Cl                                                0.401403690701     -2.641158521823      0.568768526409
  O                                                -0.198079747008      2.675526348466      0.056281923055
  C                                                -1.318164127314      3.102394625050     -0.174526739659
  O                                                -2.197367772064      2.503395653259     -1.011442073641
  O                                                -1.822457105964      4.231264936891      0.374451703845
  C                                                -3.503783894238      3.162631235907     -0.876955636296
  C                                                -3.108408083899      4.507873473748     -0.242899624767
  C                                                -4.424278436552      2.306038769779     -0.028672941568
  H                                                -2.969139641235      5.315234802131     -0.987920360244
  H                                                -3.805604251990      4.836620592305      0.548359019169
  H                                                -4.016619424094      2.190837765847      0.995452479361
  H                                                -4.541755340326      1.298660056241     -0.470016665117
  H                                                -5.420861207864      2.787205964969      0.031205203431
  H                                                -3.891207527017      3.290638108579     -1.904421103441
  O                                                 2.142595299427     -0.817085995893     -1.926379810825
  C                                                 3.069696682469     -1.416171771947     -1.409224958743
  O                                                 3.947088733477     -0.855907679807     -0.535744826258
  O                                                 3.356513887430     -2.717006596744     -1.644554652396
  C                                                 4.764161994790     -1.918271874922      0.063613420672
  C                                                 4.584834215280     -3.060195784710     -0.951976844689
  C                                                 4.253885607298     -2.217082435236      1.461384276364
  H                                                 5.402239178258     -3.110128802255     -1.697397464126
  H                                                 4.445644804857     -4.046653813735     -0.474227928491
  H                                                 3.210324634897     -2.590468316916      1.423421664257
  H                                                 4.282521116612     -1.302461220825      2.083950618484
  H                                                 4.897745190595     -2.985713458975      1.933291610969
  H                                                 5.802850793729     -1.539558239725      0.076606954309
  O                                                -2.394024629017     -1.093423808222     -1.485792682394
  C                                                -3.242939048587     -1.710377296577     -0.852737399830
  O                                                -3.088234620895     -2.969501705682     -0.404761696963
  O                                                -4.452717971176     -1.195004279462     -0.539135091235
  C                                                -4.204247551885     -3.293564282291      0.495992060333
  C                                                -5.244980602494     -2.227058246528      0.108632175276
  C                                                -3.721071726214     -3.223407278067      1.932365526453
  H                                                -5.994871492494     -2.593298634459     -0.618553844533
  H                                                -5.748747140882     -1.774026084538      0.981204137293
  H                                                -3.380777905749     -2.196994516656      2.178709484143
  H                                                -2.877775633904     -3.922648548894      2.089870691182
  H                                                -4.546712218619     -3.508568521297      2.614298863357
  H                                                -4.536787205403     -4.311005646663      0.220124377870
  O                                                 1.665899874309      0.410222034263      1.352478101458
  C                                                 2.580302206944      1.150203424702      0.987860637376
  O                                                 2.611568057823      1.786463916806     -0.188156467420
  O                                                 3.657682880904      1.396732919681      1.754441499228
  C                                                 3.759304764927      2.703878386560     -0.203016529185
  C                                                 4.608501947013      2.165642030151      0.962827886961
  C                                                 3.258159838940      4.125273851980     -0.035498902985
  H                                                 5.409881511151      1.478163013789      0.632812235040
  H                                                 5.023394359338      2.961061569696      1.606717108266
  H                                                 2.769832414935      4.257841155011      0.950453489140
  H                                                 2.527416396511      4.372451860639     -0.828352940204
  H                                                 4.109749363493      4.830093994437     -0.107648530355
  H                                                 4.257568252659      2.552787731941     -1.177832636809
 Recover connectivity data from disk.
 Stoichiometry    C16H24Cl2O12Pb
 Framework group  C1[X(C16H24Cl2O12Pb)]
 Deg. of freedom   159
 Full point group                 C1      NOp   1
 Largest Abelian subgroup         C1      NOp   1
 Largest concise Abelian subgroup C1      NOp   1
                         Standard orientation:                         
 ---------------------------------------------------------------------
 Center     Atomic      Atomic             Coordinates (Angstroms)
 Number     Number       Type             X           Y           Z
 ---------------------------------------------------------------------
      1         82           0       -0.178646   -0.190168   -0.254766
      2         17           0       -1.793874    0.146646    1.804432
      3         17           0        0.387918   -2.641329    0.558700
      4          8           0       -0.190959    2.676750    0.037066
      5          6           0       -1.309077    3.107423   -0.196196
      6          8           0       -2.189164    2.510404   -1.033597
      7          8           0       -1.810043    4.239007    0.350234
      8          6           0       -3.493332    3.174700   -0.902221
      9          6           0       -3.093967    4.519441   -0.269604
     10          6           0       -4.418362    2.322848   -0.054098
     11          1           0       -2.950505    5.325127   -1.015643
     12          1           0       -3.791199    4.852001    0.520028
     13          1           0       -4.012772    2.207716    0.970856
     14          1           0       -4.538881    1.315233   -0.494078
     15          1           0       -5.413242    2.807810    0.003440
     16          1           0       -3.878634    3.302558   -1.930503
     17          8           0        2.139870   -0.827603   -1.936458
     18          6           0        3.063908   -1.429332   -1.416895
     19          8           0        3.941982   -0.870985   -0.542872
     20          8           0        3.346259   -2.731586   -1.649761
     21          6           0        4.754137   -1.935452    0.059431
     22          6           0        4.572185   -3.078270   -0.954686
     23          6           0        4.240519   -2.230202    1.456840
     24          1           0        5.390589   -3.132394   -1.698717
     25          1           0        4.428563   -4.063464   -0.475642
     26          1           0        3.195638   -2.599763    1.417779
     27          1           0        4.271563   -1.314732    2.078043
     28          1           0        4.880759   -3.000492    1.930963
     29          1           0        5.794206   -1.560584    0.073508
     30          8           0       -2.398445   -1.086388   -1.502723
     31          6           0       -3.250660   -1.699202   -0.870081
     32          8           0       -3.101358   -2.958199   -0.419920
     33          8           0       -4.459012   -1.178849   -0.559214
     34          6           0       -4.220007   -3.276716    0.479541
     35          6           0       -5.256144   -2.206948    0.088870
     36          6           0       -3.738870   -3.206136    1.916578
     37          1           0       -6.006229   -2.571521   -0.638953
     38          1           0       -5.759615   -1.750697    0.959934
     39          1           0       -3.395153   -2.180616    2.161886
     40          1           0       -2.898434   -3.908264    2.076512
     41          1           0       -4.566655   -3.487171    2.597624
     42          1           0       -4.555889   -4.293339    0.204707
     43          8           0        1.662505    0.406536    1.339737
     44          6           0        2.580236    1.142548    0.975448
     45          8           0        2.615749    1.776869   -0.201496
     46          8           0        3.657300    1.386254    1.743376
     47          6           0        3.766913    2.689985   -0.215927
     48          6           0        4.612237    2.150398    0.952105
     49          6           0        3.270794    4.113492   -0.051402
     50          1           0        5.411580    1.459434    0.624435
     51          1           0        5.029057    2.945263    1.595434
     52          1           0        2.781388    4.249398    0.933560
     53          1           0        2.542243    4.362159   -0.845807
     54          1           0        4.125114    4.815028   -0.123271
     55          1           0        4.266168    2.535536   -1.189709
 ---------------------------------------------------------------------
 Rotational constants (GHZ):           0.1443280           0.0905118           0.0637666
 General basis read from cards:  (5D, 7F)
 ======================================================================================================
                                       Pseudopotential Parameters
 ======================================================================================================
  Center     Atomic      Valence      Angular      Power
  Number     Number     Electrons     Momentum     of R      Exponent        Coefficient   SO-Coeffient
 ======================================================================================================
    1         82            4
                                      G and up 
                                                     0      376.5803786       -0.17896050    0.00000000
                                                     1       86.4840014      -54.39723370    0.00000000
                                                     2       26.6784276     -199.70617590    0.00000000
                                                     2        9.4261986      -79.12239410    0.00000000
                                                     2        2.7101719      -24.98690200    0.00000000
                                                     2        0.8792031       -4.43979390    0.00000000
                                      S - G
                                                     0      132.4248796        2.81153860    0.00000000
                                                     1       47.2376044       65.03672050    0.00000000
                                                     2       17.6312727      212.78685450    0.00000000
                                                     2        5.4744712       72.10531750    0.00000000
                                                     2        1.2634856       33.01409400    0.00000000
                                                     2        0.7651447       -5.77084610    0.00000000
                                      P - G
                                                     0       67.8966454        4.87549110    0.00000000
                                                     1       24.9898225       63.91481020    0.00000000
                                                     2       10.7052939      148.10643580    0.00000000
                                                     2        3.2792568       47.31063010    0.00000000
                                                     2        0.8452522       21.03067020    0.00000000
                                                     2        0.6416245       -7.09307720    0.00000000
                                      D - G
                                                     0       68.8336005        3.21613880    0.00000000
                                                     1       24.2815874       55.73860860    0.00000000
                                                     2        9.4532762      121.41683510    0.00000000
                                                     2        2.4788185       19.34560640    0.00000000
                                                     2        2.4789161       15.36751680    0.00000000
                                                     2        0.5551738        6.12987240    0.00000000
                                      F - G
                                                     0      128.1021322        4.13536820    0.00000000
                                                     1       54.8029154       67.51284460    0.00000000
                                                     2       24.5529308      258.73731070    0.00000000
                                                     2        8.1144792      113.24782640    0.00000000
                                                     2        1.6931290       34.16802010    0.00000000
                                                     2        0.7670500       -6.55319560    0.00000000
    2         17
                                   No pseudopotential on this center.
    3         17
                                   No pseudopotential on this center.
    4          8
                                   No pseudopotential on this center.
    5          6
                                   No pseudopotential on this center.
    6          8
                                   No pseudopotential on this center.
    7          8
                                   No pseudopotential on this center.
    8          6
                                   No pseudopotential on this center.
    9          6
                                   No pseudopotential on this center.
   10          6
                                   No pseudopotential on this center.
   11          1
                                   No pseudopotential on this center.
   12          1
                                   No pseudopotential on this center.
   13          1
                                   No pseudopotential on this center.
   14          1
                                   No pseudopotential on this center.
   15          1
                                   No pseudopotential on this center.
   16          1
                                   No pseudopotential on this center.
   17          8
                                   No pseudopotential on this center.
   18          6
                                   No pseudopotential on this center.
   19          8
                                   No pseudopotential on this center.
   20          8
                                   No pseudopotential on this center.
   21          6
                                   No pseudopotential on this center.
   22          6
                                   No pseudopotential on this center.
   23          6
                                   No pseudopotential on this center.
   24          1
                                   No pseudopotential on this center.
   25          1
                                   No pseudopotential on this center.
   26          1
                                   No pseudopotential on this center.
   27          1
                                   No pseudopotential on this center.
   28          1
                                   No pseudopotential on this center.
   29          1
                                   No pseudopotential on this center.
   30          8
                                   No pseudopotential on this center.
   31          6
                                   No pseudopotential on this center.
   32          8
                                   No pseudopotential on this center.
   33          8
                                   No pseudopotential on this center.
   34          6
                                   No pseudopotential on this center.
   35          6
                                   No pseudopotential on this center.
   36          6
                                   No pseudopotential on this center.
   37          1
                                   No pseudopotential on this center.
   38          1
                                   No pseudopotential on this center.
   39          1
                                   No pseudopotential on this center.
   40          1
                                   No pseudopotential on this center.
   41          1
                                   No pseudopotential on this center.
   42          1
                                   No pseudopotential on this center.
   43          8
                                   No pseudopotential on this center.
   44          6
                                   No pseudopotential on this center.
   45          8
                                   No pseudopotential on this center.
   46          8
                                   No pseudopotential on this center.
   47          6
                                   No pseudopotential on this center.
   48          6
                                   No pseudopotential on this center.
   49          6
                                   No pseudopotential on this center.
   50          1
                                   No pseudopotential on this center.
   51          1
                                   No pseudopotential on this center.
   52          1
                                   No pseudopotential on this center.
   53          1
                                   No pseudopotential on this center.
   54          1
                                   No pseudopotential on this center.
   55          1
                                   No pseudopotential on this center.
 ======================================================================================================
 There are  1426 symmetry adapted cartesian basis functions of A   symmetry.
 There are  1252 symmetry adapted basis functions of A   symmetry.
  1252 basis functions,  2064 primitive gaussians,  1426 cartesian basis functions
   127 alpha electrons      127 beta electrons
       nuclear repulsion energy      3735.3322260551 Hartrees.
 NAtoms=   55 NActive=   55 NUniq=   55 SFac= 1.00D+00 NAtFMM=   60 NAOKFM=F Big=F
 Integral buffers will be    131072 words long.
 Raffenetti 1 integral format.
 Two-electron integral symmetry is turned on.
 Nuclear repulsion after empirical dispersion term =     3735.2705677562 Hartrees.
 Using the following non-standard input for PCM:
 eps=64.0
 --- end of non-standard input.
 ------------------------------------------------------------------------------
 Polarizable Continuum Model (PCM)
 =================================
 Model                : PCM.
 Atomic radii         : UFF (Universal Force Field).
 Polarization charges : Total charges.
 Charge compensation  : None.
 Solution method      : On-the-fly selection.
 Cavity type          : Scaled VdW (van der Waals Surface) (Alpha=1.100).
 Cavity algorithm     : GePol (No added spheres)
                        Default sphere list used, NSphG=   55.
                        Lebedev-Laikov grids with approx.  5.0 points / Ang**2.
                        Smoothing algorithm: York/Karplus (Gamma=1.0000).
                        Polarization charges: spherical gaussians, with
                                              point-specific exponents (IZeta= 3).
                        Self-potential: point-specific (ISelfS= 7).
                        Self-field    : sphere-specific E.n sum rule (ISelfD= 2).
 Solvent              : Water, Eps=  64.000000 Eps(inf)=   1.777849
 ------------------------------------------------------------------------------
 One-electron integrals computed using PRISM.
   1 Symmetry operations used in ECPInt.
 ECPInt:  NShTT=  102378 NPrTT=  439980 LenC2=   71208 LenP2D=  177908.
 LDataN:  DoStor=T MaxTD1= 7 Len=  274
 NBasis=  1252 RedAO= T EigKep=  4.10D-04  NBF=  1252
 NBsUse=  1252 1.00D-06 EigRej= -1.00D+00 NBFU=  1252
 Defaulting to unpruned grid for atomic number  82.
 Initial guess from the checkpoint file:  "02-PbCl2_PC.chk"
 B after Tr=    -0.000000   -0.000000   -0.000000
         Rot=    1.000000   -0.000000   -0.000000    0.000000 Ang=   0.00 deg.
 Requested convergence on RMS density matrix=1.00D-08 within 128 cycles.
 Requested convergence on MAX density matrix=1.00D-06.
 Requested convergence on             energy=1.00D-06.
 No special actions if energy rises.
 Defaulting to unpruned grid for atomic number  82.
 Defaulting to unpruned grid for atomic number  82.
 Defaulting to unpruned grid for atomic number  82.
 Defaulting to unpruned grid for atomic number  82.
 Defaulting to unpruned grid for atomic number  82.
 Inv3:  Mode=1 IEnd=    54596268.
 Iteration    1 A*A^-1 deviation from unit magnitude is 3.11D-15 for   1115.
 Iteration    1 A*A^-1 deviation from orthogonality  is 2.33D-15 for   3193   1668.
 Iteration    1 A^-1*A deviation from unit magnitude is 3.33D-15 for    182.
 Iteration    1 A^-1*A deviation from orthogonality  is 3.54D-14 for   3994   3460.
 Error on total polarization charges =  0.01668
 SCF Done:  E(RCAM-B3LYP) =  -2451.03817895     A.U. after   12 cycles
            NFock= 12  Conv=0.18D-08     -V/T= 2.0063
 DoSCS=F DFT=T ScalE2(SS,OS)=  1.000000  1.000000
 ExpMin= 5.98D-02 ExpMax= 4.56D+05 ExpMxC= 1.44D+03 IAcc=3 IRadAn=         5 AccDes= 0.00D+00
 HarFok:  IExCor=  205 AccDes= 0.00D+00 IRadAn=         5 IDoV=-2 UseB2=F ITyADJ=14
 ICtDFT= 12500011 ScaDFX=  1.000000  1.000000  1.000000  1.000000
 Defaulting to unpruned grid for atomic number  82.
 GSVD:  LWork=       -1748 too small for GESVD, short by        7790 words or        7790 for optimal perf.
 Range of M.O.s used for correlation:    39  1252
 NBasis=  1252 NAE=   127 NBE=   127 NFC=    38 NFV=     0
 NROrb=   1214 NOA=    89 NOB=    89 NVA=  1125 NVB=  1125

 **** Warning!!: The largest alpha MO coefficient is  0.11445899D+02

 NEqPCM:  Using non-equilibrium solvation (IEInf=1, Eps=  64.0000, EpsInf=   1.7778)
 Inv3:  Mode=1 IEnd=    54596268.
 Iteration    1 A*A^-1 deviation from unit magnitude is 3.33D-15 for    966.
 Iteration    1 A*A^-1 deviation from orthogonality  is 2.44D-15 for   2874   1350.
 Iteration    1 A^-1*A deviation from unit magnitude is 3.11D-15 for     31.
 Iteration    1 A^-1*A deviation from orthogonality  is 4.62D-14 for   3994   3460.
 Orbital symmetries:
       Occupied  (A) (A) (A) (A) (A) (A) (A) (A) (A) (A) (A) (A)
                 (A) (A) (A) (A) (A) (A) (A) (A) (A) (A) (A) (A)
                 (A) (A) (A) (A) (A) (A) (A) (A) (A) (A) (A) (A)
                 (A) (A) (A) (A) (A) (A) (A) (A) (A) (A) (A) (A)
                 (A) (A) (A) (A) (A) (A) (A) (A) (A) (A) (A) (A)
                 (A) (A) (A) (A) (A) (A) (A) (A) (A) (A) (A) (A)
                 (A) (A) (A) (A) (A) (A) (A) (A) (A) (A) (A) (A)
                 (A) (A) (A) (A) (A) (A) (A) (A) (A) (A) (A) (A)
                 (A) (A) (A) (A) (A) (A) (A) (A) (A) (A) (A) (A)
                 (A) (A) (A) (A) (A) (A) (A) (A) (A) (A) (A) (A)
                 (A) (A) (A) (A) (A) (A) (A)
       Virtual   (A) (A) (A) (A) (A) (A) (A) (A) (A) (A) (A) (A)
                 (A) (A) (A) (A) (A) (A) (A) (A) (A) (A) (A) (A)
                 (A) (A) (A) (A) (A) (A) (A) (A) (A) (A) (A) (A)
                 (A) (A) (A) (A) (A) (A) (A) (A) (A) (A) (A) (A)
                 (A) (A) (A) (A) (A) (A) (A) (A) (A) (A) (A) (A)
                 (A) (A) (A) (A) (A) (A) (A) (A) (A) (A) (A) (A)
                 (A) (A) (A) (A) (A) (A) (A) (A) (A) (A) (A) (A)
                 (A) (A) (A) (A) (A) (A) (A) (A) (A) (A) (A) (A)
                 (A) (A) (A) (A) (A) (A) (A) (A) (A) (A) (A) (A)
                 (A) (A) (A) (A) (A) (A) (A) (A) (A) (A) (A) (A)
                 (A) (A) (A) (A) (A) (A) (A) (A) (A) (A) (A) (A)
                 (A) (A) (A) (A) (A) (A) (A) (A) (A) (A) (A) (A)
                 (A) (A) (A) (A) (A) (A) (A) (A) (A) (A) (A) (A)
                 (A) (A) (A) (A) (A) (A) (A) (A) (A) (A) (A) (A)
                 (A) (A) (A) (A) (A) (A) (A) (A) (A) (A) (A) (A)
                 (A) (A) (A) (A) (A) (A) (A) (A) (A) (A) (A) (A)
                 (A) (A) (A) (A) (A) (A) (A) (A) (A) (A) (A) (A)
                 (A) (A) (A) (A) (A) (A) (A) (A) (A) (A) (A) (A)
                 (A) (A) (A) (A) (A) (A) (A) (A) (A) (A) (A) (A)
                 (A) (A) (A) (A) (A) (A) (A) (A) (A) (A) (A) (A)
                 (A) (A) (A) (A) (A) (A) (A) (A) (A) (A) (A) (A)
                 (A) (A) (A) (A) (A) (A) (A) (A) (A) (A) (A) (A)
                 (A) (A) (A) (A) (A) (A) (A) (A) (A) (A) (A) (A)
                 (A) (A) (A) (A) (A) (A) (A) (A) (A) (A) (A) (A)
                 (A) (A) (A) (A) (A) (A) (A) (A) (A) (A) (A) (A)
                 (A) (A) (A) (A) (A) (A) (A) (A) (A) (A) (A) (A)
                 (A) (A) (A) (A) (A) (A) (A) (A) (A) (A) (A) (A)
                 (A) (A) (A) (A) (A) (A) (A) (A) (A) (A) (A) (A)
                 (A) (A) (A) (A) (A) (A) (A) (A) (A) (A) (A) (A)
                 (A) (A) (A) (A) (A) (A) (A) (A) (A) (A) (A) (A)
                 (A) (A) (A) (A) (A) (A) (A) (A) (A) (A) (A) (A)
                 (A) (A) (A) (A) (A) (A) (A) (A) (A) (A) (A) (A)
                 (A) (A) (A) (A) (A) (A) (A) (A) (A) (A) (A) (A)
                 (A) (A) (A) (A) (A) (A) (A) (A) (A) (A) (A) (A)
                 (A) (A) (A) (A) (A) (A) (A) (A) (A) (A) (A) (A)
                 (A) (A) (A) (A) (A) (A) (A) (A) (A) (A) (A) (A)
                 (A) (A) (A) (A) (A) (A) (A) (A) (A) (A) (A) (A)
                 (A) (A) (A) (A) (A) (A) (A) (A) (A) (A) (A) (A)
                 (A) (A) (A) (A) (A) (A) (A) (A) (A) (A) (A) (A)
                 (A) (A) (A) (A) (A) (A) (A) (A) (A) (A) (A) (A)
                 (A) (A) (A) (A) (A) (A) (A) (A) (A) (A) (A) (A)
                 (A) (A) (A) (A) (A) (A) (A) (A) (A) (A) (A) (A)
                 (A) (A) (A) (A) (A) (A) (A) (A) (A) (A) (A) (A)
                 (A) (A) (A) (A) (A) (A) (A) (A) (A) (A) (A) (A)
                 (A) (A) (A) (A) (A) (A) (A) (A) (A) (A) (A) (A)
                 (A) (A) (A) (A) (A) (A) (A) (A) (A) (A) (A) (A)
                 (A) (A) (A) (A) (A) (A) (A) (A) (A) (A) (A) (A)
                 (A) (A) (A) (A) (A) (A) (A) (A) (A) (A) (A) (A)
                 (A) (A) (A) (A) (A) (A) (A) (A) (A) (A) (A) (A)
                 (A) (A) (A) (A) (A) (A) (A) (A) (A) (A) (A) (A)
                 (A) (A) (A) (A) (A) (A) (A) (A) (A) (A) (A) (A)
                 (A) (A) (A) (A) (A) (A) (A) (A) (A) (A) (A) (A)
                 (A) (A) (A) (A) (A) (A) (A) (A) (A) (A) (A) (A)
                 (A) (A) (A) (A) (A) (A) (A) (A) (A) (A) (A) (A)
                 (A) (A) (A) (A) (A) (A) (A) (A) (A) (A) (A) (A)
                 (A) (A) (A) (A) (A) (A) (A) (A) (A) (A) (A) (A)
                 (A) (A) (A) (A) (A) (A) (A) (A) (A) (A) (A) (A)
                 (A) (A) (A) (A) (A) (A) (A) (A) (A) (A) (A) (A)
                 (A) (A) (A) (A) (A) (A) (A) (A) (A) (A) (A) (A)
                 (A) (A) (A) (A) (A) (A) (A) (A) (A) (A) (A) (A)
                 (A) (A) (A) (A) (A) (A) (A) (A) (A) (A) (A) (A)
                 (A) (A) (A) (A) (A) (A) (A) (A) (A) (A) (A) (A)
                 (A) (A) (A) (A) (A) (A) (A) (A) (A) (A) (A) (A)
                 (A) (A) (A) (A) (A) (A) (A) (A) (A) (A) (A) (A)
                 (A) (A) (A) (A) (A) (A) (A) (A) (A) (A) (A) (A)
                 (A) (A) (A) (A) (A) (A) (A) (A) (A) (A) (A) (A)
                 (A) (A) (A) (A) (A) (A) (A) (A) (A) (A) (A) (A)
                 (A) (A) (A) (A) (A) (A) (A) (A) (A) (A) (A) (A)
                 (A) (A) (A) (A) (A) (A) (A) (A) (A) (A) (A) (A)
                 (A) (A) (A) (A) (A) (A) (A) (A) (A) (A) (A) (A)
                 (A) (A) (A) (A) (A) (A) (A) (A) (A) (A) (A) (A)
                 (A) (A) (A) (A) (A) (A) (A) (A) (A) (A) (A) (A)
                 (A) (A) (A) (A) (A) (A) (A) (A) (A) (A) (A) (A)
                 (A) (A) (A) (A) (A) (A) (A) (A) (A) (A) (A) (A)
                 (A) (A) (A) (A) (A) (A) (A) (A) (A) (A) (A) (A)
                 (A) (A) (A) (A) (A) (A) (A) (A) (A) (A) (A) (A)
                 (A) (A) (A) (A) (A) (A) (A) (A) (A) (A) (A) (A)
                 (A) (A) (A) (A) (A) (A) (A) (A) (A) (A) (A) (A)
                 (A) (A) (A) (A) (A) (A) (A) (A) (A) (A) (A) (A)
                 (A) (A) (A) (A) (A) (A) (A) (A) (A) (A) (A) (A)
                 (A) (A) (A) (A) (A) (A) (A) (A) (A) (A) (A) (A)
                 (A) (A) (A) (A) (A) (A) (A) (A) (A) (A) (A) (A)
                 (A) (A) (A) (A) (A) (A) (A) (A) (A) (A) (A) (A)
                 (A) (A) (A) (A) (A) (A) (A) (A) (A) (A) (A) (A)
                 (A) (A) (A) (A) (A) (A) (A) (A) (A) (A) (A) (A)
                 (A) (A) (A) (A) (A) (A) (A) (A) (A) (A) (A) (A)
                 (A) (A) (A) (A) (A) (A) (A) (A) (A) (A) (A) (A)
                 (A) (A) (A) (A) (A) (A) (A) (A) (A) (A) (A) (A)
                 (A) (A) (A) (A) (A) (A) (A) (A) (A) (A) (A) (A)
                 (A) (A) (A) (A) (A) (A) (A) (A) (A) (A) (A) (A)
                 (A) (A) (A) (A) (A) (A) (A) (A) (A) (A) (A) (A)
                 (A) (A) (A) (A) (A) (A) (A) (A) (A) (A) (A) (A)
                 (A) (A) (A) (A) (A) (A) (A) (A) (A) (A) (A) (A)
                 (A) (A) (A) (A) (A) (A) (A) (A) (A)
    40 initial guesses have been made.
 Convergence on wavefunction:    0.001000000000000
 Iteration     1 Dimension    40 NMult     0 NNew     40
 CISAX will form    40 AO SS matrices at one time.
 Defaulting to unpruned grid for atomic number  82.
 Defaulting to unpruned grid for atomic number  82.
 Defaulting to unpruned grid for atomic number  82.
 Defaulting to unpruned grid for atomic number  82.
 Defaulting to unpruned grid for atomic number  82.
 New state      5 was old state      9
 New state      6 was old state     13
 New state      7 was old state      8
 New state      8 was old state     14
 New state      9 was old state      7
 New state     10 was old state     11
 Iteration     2 Dimension    60 NMult    40 NNew     20
 New state      4 was old state      5
 New state      5 was old state      4
 Iteration     3 Dimension    80 NMult    60 NNew     20
 Iteration     4 Dimension   100 NMult    80 NNew     20
 Iteration     5 Dimension   120 NMult   100 NNew     20
 New state      8 was old state      9
 New state      9 was old state      8
 Iteration     6 Dimension   140 NMult   120 NNew     20
 New state      8 was old state     10
 New state      9 was old state      8
 New state     10 was old state      9
 Iteration     7 Dimension   160 NMult   140 NNew     20
 New state      8 was old state      9
 New state      9 was old state      8
 Iteration     8 Dimension   180 NMult   160 NNew     20
 Iteration     9 Dimension   192 NMult   180 NNew     12
 Iteration    10 Dimension   204 NMult   192 NNew     12
 Iteration    11 Dimension   208 NMult   204 NNew      4
 ***********************************************************************
 Excited states from <AA,BB:AA,BB> singles matrix:
 ***********************************************************************
 
 Ground to excited state transition densities written to RWF  633
 Ground to excited state transition electric dipole moments (Au):
       state          X           Y           Z        Dip. S.      Osc.
         1        -0.9414     -0.3434     -0.3687      1.1401      0.1791
         2         1.0580     -0.1264     -0.7015      1.6275      0.2619
         3        -0.0020     -1.0292      0.4919      1.3012      0.2140
         4         0.5923     -0.6882     -0.0854      0.8318      0.1407
         5         0.0788      0.0326     -0.0695      0.0121      0.0021
         6         0.0017     -0.0206      0.0324      0.0015      0.0003
         7         0.0301     -0.0396      0.1018      0.0128      0.0022
         8        -0.1759     -0.0472      0.1408      0.0530      0.0091
         9        -0.0319     -0.1308     -0.0548      0.0211      0.0036
        10        -0.4576      0.2493      0.0534      0.2745      0.0474
 Ground to excited state transition velocity dipole moments (Au):
       state          X           Y           Z        Dip. S.      Osc.
         1         0.1756      0.0655      0.0503      0.0377      0.1065
         2        -0.2085      0.0125      0.1248      0.0592      0.1635
         3        -0.0000      0.1898     -0.1055      0.0472      0.1274
         4        -0.1420      0.1667      0.0136      0.0482      0.1265
         5        -0.0236     -0.0155      0.0267      0.0015      0.0039
         6        -0.0031     -0.0020     -0.0110      0.0001      0.0004
         7        -0.0054      0.0140     -0.0259      0.0009      0.0023
         8         0.0440      0.0147     -0.0253      0.0028      0.0072
         9         0.0152      0.0370     -0.0033      0.0016      0.0042
        10         0.1291     -0.0480     -0.0152      0.0192      0.0494
 Ground to excited state transition magnetic dipole moments (Au):
       state          X           Y           Z
         1         0.5706     -1.0252     -0.1780
         2         0.7337      0.7500      0.5267
         3         0.7914     -0.1844      0.3784
         4         0.2194     -0.2808      0.1270
         5        -0.2478     -0.0039      0.1153
         6         0.1099     -0.3462      0.4389
         7         0.3652     -0.0138      0.1716
         8         0.8547      0.0914     -0.1487
         9        -0.1621      0.1741     -0.0996
        10        -0.3167      0.1014      0.4489
 Ground to excited state transition velocity quadrupole moments (Au):
       state          XX          YY          ZZ          XY          XZ          YZ
         1         0.0462      0.3056     -0.1159     -0.2317     -0.0478      0.0373
         2        -0.0689      0.1088      0.2228      0.4090     -0.2750     -0.0815
         3        -0.0504     -0.1058     -0.0786     -0.2281      0.1335      0.1074
         4        -0.0102     -0.1303      0.1105     -0.1704     -0.1358      0.1553
         5        -0.0711     -0.0825      0.0646      0.1804     -0.0394     -0.1237
         6         0.1399     -0.0779     -0.0614     -0.0189     -0.0180     -0.0918
         7         0.3864     -0.0193     -0.0876     -0.1805      0.0590     -0.0520
         8        -0.1516      0.0701     -0.0094     -0.0232      0.1437      0.0869
         9         0.1926      0.0598     -0.0333     -0.1893     -0.0582      0.1873
        10        -0.1877      0.1577     -0.0126     -0.3758      0.1444      0.0863
 <0|del|b> * <b|rxdel|0> + <0|del|b> * <b|delr+rdel|0>
 Rotatory Strengths (R) in cgs (10**-40 erg-esu-cm/Gauss)
       state          XX          YY          ZZ    R(velocity)    E-M Angle
         1      -126.9111    164.2119     35.1341     24.1450       83.98
         2       189.8262   -177.6652   -240.2672    -76.0354      105.82
         3      -109.2110    -91.7637    -13.8742    -71.6163      112.65
         4       -34.5169    -68.5263   -109.5015    -70.8482      156.71
         5        10.1651      9.7317      4.9845      8.2937       32.20
         6        -5.4744     -7.0307      0.1467     -4.1194      132.63
         7        -1.0826    -14.8298     -2.2155     -6.0427      123.12
         8         4.9069     61.2257     51.1145     39.0824       22.07
         9        13.0674      0.1148     -1.4120      3.9234       65.42
        10         1.2971    -57.6836    -87.0534    -47.8133      132.78
 1/2[<0|r|b>*<b|rxdel|0> + (<0|rxdel|b>*<b|r|0>)*]
 Rotatory Strengths (R) in cgs (10**-40 erg-esu-cm/Gauss)
       state          XX          YY          ZZ     R(length)
         1       379.8430   -248.9812    -46.3949     28.1556
         2      -548.9270     67.0538    261.2719    -73.5337
         3         1.1054   -134.2143   -131.6304    -88.2464
         4       -91.9062   -136.6508      7.6666    -73.6301
         5        13.8039      0.0892      5.6692      6.5208
         6        -0.1332     -5.0438    -10.0554     -5.0775
         7        -7.7606     -0.3871    -12.3550     -6.8342
         8       106.2934      3.0469     14.8010     41.3804
         9        -3.6622     16.1036     -3.8641      2.8591
        10      -102.4884    -17.8736    -16.9668    -45.7763
  1/2[<0|del|b>*<b|r|0> + (<0|r|b>*<b|del|0>)*] (Au)
       state          X           Y           Z        Dip. S.   Osc.(frdel)
         1        -0.1654     -0.0225     -0.0185      0.2064      0.1376
         2        -0.2206     -0.0016     -0.0876      0.3098      0.2065
         3         0.0000     -0.1954     -0.0519      0.2472      0.1648
         4        -0.0841     -0.1148     -0.0012      0.2000      0.1333
         5        -0.0019     -0.0005     -0.0019      0.0042      0.0028
         6        -0.0000      0.0000     -0.0004      0.0003      0.0002
         7        -0.0002     -0.0006     -0.0026      0.0033      0.0022
         8        -0.0077     -0.0007     -0.0036      0.0120      0.0080
         9        -0.0005     -0.0048      0.0002      0.0051      0.0034
        10        -0.0591     -0.0120     -0.0008      0.0719      0.0479

 Excitation energies and oscillator strengths:
 
 Excited State   1:      Singlet-A      6.4139 eV  193.31 nm  f=0.1791  <S**2>=0.000
     127 -> 128        0.59102
     127 -> 129        0.34140
 This state for optimization and/or second-order correction.
 Total Energy, E(TD-HF/TD-DFT) =  -2450.80247357    
 Copying the excited state density for this state as the 1-particle RhoCI density.
 
 Excited State   2:      Singlet-A      6.5689 eV  188.74 nm  f=0.2619  <S**2>=0.000
     126 -> 129       -0.16307
     126 -> 130        0.11706
     127 -> 128       -0.31461
     127 -> 129        0.55837
 
 Excited State   3:      Singlet-A      6.7136 eV  184.68 nm  f=0.2140  <S**2>=0.000
     126 -> 129       -0.22251
     126 -> 130        0.12084
     127 -> 129       -0.13902
     127 -> 130        0.59640
 
 Excited State   4:      Singlet-A      6.9031 eV  179.61 nm  f=0.1407  <S**2>=0.000
     123 -> 129        0.14605
     125 -> 128       -0.17849
     125 -> 129       -0.10976
     126 -> 129        0.52025
     127 -> 130        0.18032
 
 Excited State   5:      Singlet-A      6.9521 eV  178.34 nm  f=0.0021  <S**2>=0.000
     126 -> 128        0.63237
     126 -> 130       -0.14928
 
 Excited State   6:      Singlet-A      6.9921 eV  177.32 nm  f=0.0003  <S**2>=0.000
     113 -> 133       -0.12134
     121 -> 129       -0.10709
     121 -> 133        0.11504
     124 -> 129       -0.18847
     125 -> 128       -0.11068
     125 -> 129        0.26747
     125 -> 130       -0.13979
     126 -> 128        0.16193
     126 -> 130        0.12381
     127 -> 133       -0.16803
 
 Excited State   7:      Singlet-A      7.0000 eV  177.12 nm  f=0.0022  <S**2>=0.000
     113 -> 133        0.18120
     124 -> 129       -0.14434
     125 -> 129        0.35711
     125 -> 130       -0.25194
     126 -> 130        0.10448
     127 -> 133        0.18301
 
 Excited State   8:      Singlet-A      7.0136 eV  176.78 nm  f=0.0091  <S**2>=0.000
     112 -> 128       -0.11962
     112 -> 134        0.10608
     114 -> 128       -0.14775
     121 -> 129       -0.10540
     124 -> 129        0.13761
     125 -> 128        0.22062
     125 -> 129       -0.15362
     125 -> 130        0.11714
     126 -> 128        0.13286
     127 -> 131        0.20829
 
 Excited State   9:      Singlet-A      7.0371 eV  176.19 nm  f=0.0036  <S**2>=0.000
     110 -> 131       -0.10313
     113 -> 133       -0.13194
     117 -> 128       -0.11143
     125 -> 128        0.11879
     126 -> 129        0.23421
     126 -> 130        0.32760
     127 -> 131       -0.18766
 
 Excited State  10:      Singlet-A      7.0556 eV  175.72 nm  f=0.0474  <S**2>=0.000
     110 -> 131        0.11632
     112 -> 128        0.12610
     112 -> 134       -0.10214
     114 -> 128        0.13298
     114 -> 134       -0.10081
     117 -> 128        0.12278
     123 -> 130       -0.10467
     124 -> 129        0.16970
     125 -> 129       -0.12926
     126 -> 130        0.38355
     127 -> 130       -0.11615
     127 -> 131        0.15174
 SavETr:  write IOETrn=   770 NScale= 10 NData=  16 NLR=1 NState=   10 LETran=     190.

 **********************************************************************

            Population analysis using the SCF Density.

 **********************************************************************

 Orbital symmetries:
       Occupied  (A) (A) (A) (A) (A) (A) (A) (A) (A) (A) (A) (A)
                 (A) (A) (A) (A) (A) (A) (A) (A) (A) (A) (A) (A)
                 (A) (A) (A) (A) (A) (A) (A) (A) (A) (A) (A) (A)
                 (A) (A) (A) (A) (A) (A) (A) (A) (A) (A) (A) (A)
                 (A) (A) (A) (A) (A) (A) (A) (A) (A) (A) (A) (A)
                 (A) (A) (A) (A) (A) (A) (A) (A) (A) (A) (A) (A)
                 (A) (A) (A) (A) (A) (A) (A) (A) (A) (A) (A) (A)
                 (A) (A) (A) (A) (A) (A) (A) (A) (A) (A) (A) (A)
                 (A) (A) (A) (A) (A) (A) (A) (A) (A) (A) (A) (A)
                 (A) (A) (A) (A) (A) (A) (A) (A) (A) (A) (A) (A)
                 (A) (A) (A) (A) (A) (A) (A)
       Virtual   (A) (A) (A) (A) (A) (A) (A) (A) (A) (A) (A) (A)
                 (A) (A) (A) (A) (A) (A) (A) (A) (A) (A) (A) (A)
                 (A) (A) (A) (A) (A) (A) (A) (A) (A) (A) (A) (A)
                 (A) (A) (A) (A) (A) (A) (A) (A) (A) (A) (A) (A)
                 (A) (A) (A) (A) (A) (A) (A) (A) (A) (A) (A) (A)
                 (A) (A) (A) (A) (A) (A) (A) (A) (A) (A) (A) (A)
                 (A) (A) (A) (A) (A) (A) (A) (A) (A) (A) (A) (A)
                 (A) (A) (A) (A) (A) (A) (A) (A) (A) (A) (A) (A)
                 (A) (A) (A) (A) (A) (A) (A) (A) (A) (A) (A) (A)
                 (A) (A) (A) (A) (A) (A) (A) (A) (A) (A) (A) (A)
                 (A) (A) (A) (A) (A) (A) (A) (A) (A) (A) (A) (A)
                 (A) (A) (A) (A) (A) (A) (A) (A) (A) (A) (A) (A)
                 (A) (A) (A) (A) (A) (A) (A) (A) (A) (A) (A) (A)
                 (A) (A) (A) (A) (A) (A) (A) (A) (A) (A) (A) (A)
                 (A) (A) (A) (A) (A) (A) (A) (A) (A) (A) (A) (A)
                 (A) (A) (A) (A) (A) (A) (A) (A) (A) (A) (A) (A)
                 (A) (A) (A) (A) (A) (A) (A) (A) (A) (A) (A) (A)
                 (A) (A) (A) (A) (A) (A) (A) (A) (A) (A) (A) (A)
                 (A) (A) (A) (A) (A) (A) (A) (A) (A) (A) (A) (A)
                 (A) (A) (A) (A) (A) (A) (A) (A) (A) (A) (A) (A)
                 (A) (A) (A) (A) (A) (A) (A) (A) (A) (A) (A) (A)
                 (A) (A) (A) (A) (A) (A) (A) (A) (A) (A) (A) (A)
                 (A) (A) (A) (A) (A) (A) (A) (A) (A) (A) (A) (A)
                 (A) (A) (A) (A) (A) (A) (A) (A) (A) (A) (A) (A)
                 (A) (A) (A) (A) (A) (A) (A) (A) (A) (A) (A) (A)
                 (A) (A) (A) (A) (A) (A) (A) (A) (A) (A) (A) (A)
                 (A) (A) (A) (A) (A) (A) (A) (A) (A) (A) (A) (A)
                 (A) (A) (A) (A) (A) (A) (A) (A) (A) (A) (A) (A)
                 (A) (A) (A) (A) (A) (A) (A) (A) (A) (A) (A) (A)
                 (A) (A) (A) (A) (A) (A) (A) (A) (A) (A) (A) (A)
                 (A) (A) (A) (A) (A) (A) (A) (A) (A) (A) (A) (A)
                 (A) (A) (A) (A) (A) (A) (A) (A) (A) (A) (A) (A)
                 (A) (A) (A) (A) (A) (A) (A) (A) (A) (A) (A) (A)
                 (A) (A) (A) (A) (A) (A) (A) (A) (A) (A) (A) (A)
                 (A) (A) (A) (A) (A) (A) (A) (A) (A) (A) (A) (A)
                 (A) (A) (A) (A) (A) (A) (A) (A) (A) (A) (A) (A)
                 (A) (A) (A) (A) (A) (A) (A) (A) (A) (A) (A) (A)
                 (A) (A) (A) (A) (A) (A) (A) (A) (A) (A) (A) (A)
                 (A) (A) (A) (A) (A) (A) (A) (A) (A) (A) (A) (A)
                 (A) (A) (A) (A) (A) (A) (A) (A) (A) (A) (A) (A)
                 (A) (A) (A) (A) (A) (A) (A) (A) (A) (A) (A) (A)
                 (A) (A) (A) (A) (A) (A) (A) (A) (A) (A) (A) (A)
                 (A) (A) (A) (A) (A) (A) (A) (A) (A) (A) (A) (A)
                 (A) (A) (A) (A) (A) (A) (A) (A) (A) (A) (A) (A)
                 (A) (A) (A) (A) (A) (A) (A) (A) (A) (A) (A) (A)
                 (A) (A) (A) (A) (A) (A) (A) (A) (A) (A) (A) (A)
                 (A) (A) (A) (A) (A) (A) (A) (A) (A) (A) (A) (A)
                 (A) (A) (A) (A) (A) (A) (A) (A) (A) (A) (A) (A)
                 (A) (A) (A) (A) (A) (A) (A) (A) (A) (A) (A) (A)
                 (A) (A) (A) (A) (A) (A) (A) (A) (A) (A) (A) (A)
                 (A) (A) (A) (A) (A) (A) (A) (A) (A) (A) (A) (A)
                 (A) (A) (A) (A) (A) (A) (A) (A) (A) (A) (A) (A)
                 (A) (A) (A) (A) (A) (A) (A) (A) (A) (A) (A) (A)
                 (A) (A) (A) (A) (A) (A) (A) (A) (A) (A) (A) (A)
                 (A) (A) (A) (A) (A) (A) (A) (A) (A) (A) (A) (A)
                 (A) (A) (A) (A) (A) (A) (A) (A) (A) (A) (A) (A)
                 (A) (A) (A) (A) (A) (A) (A) (A) (A) (A) (A) (A)
                 (A) (A) (A) (A) (A) (A) (A) (A) (A) (A) (A) (A)
                 (A) (A) (A) (A) (A) (A) (A) (A) (A) (A) (A) (A)
                 (A) (A) (A) (A) (A) (A) (A) (A) (A) (A) (A) (A)
                 (A) (A) (A) (A) (A) (A) (A) (A) (A) (A) (A) (A)
                 (A) (A) (A) (A) (A) (A) (A) (A) (A) (A) (A) (A)
                 (A) (A) (A) (A) (A) (A) (A) (A) (A) (A) (A) (A)
                 (A) (A) (A) (A) (A) (A) (A) (A) (A) (A) (A) (A)
                 (A) (A) (A) (A) (A) (A) (A) (A) (A) (A) (A) (A)
                 (A) (A) (A) (A) (A) (A) (A) (A) (A) (A) (A) (A)
                 (A) (A) (A) (A) (A) (A) (A) (A) (A) (A) (A) (A)
                 (A) (A) (A) (A) (A) (A) (A) (A) (A) (A) (A) (A)
                 (A) (A) (A) (A) (A) (A) (A) (A) (A) (A) (A) (A)
                 (A) (A) (A) (A) (A) (A) (A) (A) (A) (A) (A) (A)
                 (A) (A) (A) (A) (A) (A) (A) (A) (A) (A) (A) (A)
                 (A) (A) (A) (A) (A) (A) (A) (A) (A) (A) (A) (A)
                 (A) (A) (A) (A) (A) (A) (A) (A) (A) (A) (A) (A)
                 (A) (A) (A) (A) (A) (A) (A) (A) (A) (A) (A) (A)
                 (A) (A) (A) (A) (A) (A) (A) (A) (A) (A) (A) (A)
                 (A) (A) (A) (A) (A) (A) (A) (A) (A) (A) (A) (A)
                 (A) (A) (A) (A) (A) (A) (A) (A) (A) (A) (A) (A)
                 (A) (A) (A) (A) (A) (A) (A) (A) (A) (A) (A) (A)
                 (A) (A) (A) (A) (A) (A) (A) (A) (A) (A) (A) (A)
                 (A) (A) (A) (A) (A) (A) (A) (A) (A) (A) (A) (A)
                 (A) (A) (A) (A) (A) (A) (A) (A) (A) (A) (A) (A)
                 (A) (A) (A) (A) (A) (A) (A) (A) (A) (A) (A) (A)
                 (A) (A) (A) (A) (A) (A) (A) (A) (A) (A) (A) (A)
                 (A) (A) (A) (A) (A) (A) (A) (A) (A) (A) (A) (A)
                 (A) (A) (A) (A) (A) (A) (A) (A) (A) (A) (A) (A)
                 (A) (A) (A) (A) (A) (A) (A) (A) (A) (A) (A) (A)
                 (A) (A) (A) (A) (A) (A) (A) (A) (A) (A) (A) (A)
                 (A) (A) (A) (A) (A) (A) (A) (A) (A) (A) (A) (A)
                 (A) (A) (A) (A) (A) (A) (A) (A) (A) (A) (A) (A)
                 (A) (A) (A) (A) (A) (A) (A) (A) (A) (A) (A) (A)
                 (A) (A) (A) (A) (A) (A) (A) (A) (A) (A) (A) (A)
                 (A) (A) (A) (A) (A) (A) (A) (A) (A) (A) (A) (A)
                 (A) (A) (A) (A) (A) (A) (A) (A) (A) (A) (A) (A)
                 (A) (A) (A) (A) (A) (A) (A) (A) (A)
 The electronic state is 1-A.
 Alpha  occ. eigenvalues -- -101.55532-101.55284 -19.28279 -19.27835 -19.27816
 Alpha  occ. eigenvalues --  -19.27497 -19.27486 -19.27391 -19.27287 -19.27254
 Alpha  occ. eigenvalues --  -19.22570 -19.21555 -19.21065 -19.20950 -10.46058
 Alpha  occ. eigenvalues --  -10.45441 -10.44892 -10.44851 -10.34173 -10.33823
 Alpha  occ. eigenvalues --  -10.33696 -10.33686 -10.33390 -10.33099 -10.32952
 Alpha  occ. eigenvalues --  -10.32909 -10.25684 -10.25167 -10.25121 -10.25026
 Alpha  occ. eigenvalues --   -9.46334  -9.46090  -7.22299  -7.22063  -7.22050
 Alpha  occ. eigenvalues --   -7.22048  -7.21820  -7.21812  -1.26263  -1.25520
 Alpha  occ. eigenvalues --   -1.25128  -1.24998  -1.14850  -1.14214  -1.14198
 Alpha  occ. eigenvalues --   -1.13903  -1.13805  -1.13483  -1.13095  -1.13087
 Alpha  occ. eigenvalues --   -0.89367  -0.88950  -0.88746  -0.88741  -0.83108
 Alpha  occ. eigenvalues --   -0.82011  -0.80342  -0.79891  -0.79716  -0.79695
 Alpha  occ. eigenvalues --   -0.73329  -0.72802  -0.72604  -0.72573  -0.69900
 Alpha  occ. eigenvalues --   -0.69377  -0.69167  -0.69025  -0.62568  -0.62047
 Alpha  occ. eigenvalues --   -0.61498  -0.61480  -0.61128  -0.59800  -0.59418
 Alpha  occ. eigenvalues --   -0.59229  -0.58182  -0.57514  -0.57468  -0.57296
 Alpha  occ. eigenvalues --   -0.56923  -0.54808  -0.54002  -0.53807  -0.53183
 Alpha  occ. eigenvalues --   -0.52973  -0.52560  -0.52345  -0.50578  -0.49961
 Alpha  occ. eigenvalues --   -0.49900  -0.49788  -0.49657  -0.48930  -0.48699
 Alpha  occ. eigenvalues --   -0.48204  -0.47982  -0.47092  -0.46827  -0.46463
 Alpha  occ. eigenvalues --   -0.46310  -0.46007  -0.45833  -0.45559  -0.45516
 Alpha  occ. eigenvalues --   -0.43105  -0.42892  -0.42626  -0.42287  -0.41230
 Alpha  occ. eigenvalues --   -0.40427  -0.39976  -0.39514  -0.39509  -0.39202
 Alpha  occ. eigenvalues --   -0.39111  -0.38878  -0.38651  -0.38545  -0.38466
 Alpha  occ. eigenvalues --   -0.38248  -0.36134  -0.34993  -0.34257  -0.33554
 Alpha  occ. eigenvalues --   -0.32826  -0.31007
 Alpha virt. eigenvalues --    0.02971   0.03434   0.03996   0.05420   0.06190
 Alpha virt. eigenvalues --    0.06287   0.06921   0.07310   0.07726   0.08332
 Alpha virt. eigenvalues --    0.08790   0.09455   0.09891   0.10110   0.10460
 Alpha virt. eigenvalues --    0.10775   0.10992   0.11513   0.11663   0.12085
 Alpha virt. eigenvalues --    0.12201   0.12722   0.12813   0.13937   0.14333
 Alpha virt. eigenvalues --    0.14589   0.14812   0.15309   0.15623   0.15768
 Alpha virt. eigenvalues --    0.16613   0.17092   0.17558   0.17752   0.18207
 Alpha virt. eigenvalues --    0.18517   0.18873   0.19085   0.19283   0.19919
 Alpha virt. eigenvalues --    0.19993   0.20443   0.20929   0.22502   0.22933
 Alpha virt. eigenvalues --    0.23508   0.23635   0.24273   0.25046   0.25774
 Alpha virt. eigenvalues --    0.26254   0.26587   0.27237   0.27786   0.27964
 Alpha virt. eigenvalues --    0.28677   0.28829   0.29104   0.29710   0.30371
 Alpha virt. eigenvalues --    0.30966   0.31279   0.31834   0.32014   0.32309
 Alpha virt. eigenvalues --    0.32524   0.33456   0.34005   0.34241   0.34365
 Alpha virt. eigenvalues --    0.35027   0.35160   0.35593   0.35720   0.36305
 Alpha virt. eigenvalues --    0.36637   0.37324   0.37702   0.38050   0.38298
 Alpha virt. eigenvalues --    0.38549   0.39559   0.39709   0.40839   0.41090
 Alpha virt. eigenvalues --    0.41258   0.41647   0.41683   0.41914   0.42067
 Alpha virt. eigenvalues --    0.42379   0.42835   0.43392   0.43631   0.44069
 Alpha virt. eigenvalues --    0.44140   0.44679   0.44861   0.45274   0.45383
 Alpha virt. eigenvalues --    0.45652   0.46011   0.46131   0.46556   0.46590
 Alpha virt. eigenvalues --    0.47212   0.47644   0.47718   0.47907   0.48013
 Alpha virt. eigenvalues --    0.48177   0.48443   0.48971   0.49147   0.49227
 Alpha virt. eigenvalues --    0.49383   0.49944   0.50055   0.50197   0.50288
 Alpha virt. eigenvalues --    0.50620   0.50826   0.51160   0.51246   0.51491
 Alpha virt. eigenvalues --    0.51726   0.52347   0.52706   0.52993   0.53056
 Alpha virt. eigenvalues --    0.53266   0.53579   0.53782   0.54314   0.54345
 Alpha virt. eigenvalues --    0.54367   0.55137   0.55247   0.55699   0.56329
 Alpha virt. eigenvalues --    0.56540   0.57077   0.57227   0.57687   0.58085
 Alpha virt. eigenvalues --    0.58926   0.58948   0.59559   0.59682   0.60811
 Alpha virt. eigenvalues --    0.61240   0.62245   0.62539   0.62711   0.63123
 Alpha virt. eigenvalues --    0.63528   0.64787   0.65711   0.65971   0.66018
 Alpha virt. eigenvalues --    0.66611   0.66699   0.67566   0.68062   0.68301
 Alpha virt. eigenvalues --    0.68880   0.69617   0.69950   0.70648   0.71737
 Alpha virt. eigenvalues --    0.71902   0.72345   0.72804   0.73131   0.73734
 Alpha virt. eigenvalues --    0.74140   0.74478   0.75432   0.75712   0.77136
 Alpha virt. eigenvalues --    0.77414   0.78070   0.79234   0.79575   0.80067
 Alpha virt. eigenvalues --    0.80588   0.81366   0.81546   0.82002   0.82237
 Alpha virt. eigenvalues --    0.82927   0.83902   0.84236   0.84639   0.85934
 Alpha virt. eigenvalues --    0.86139   0.86744   0.86999   0.87245   0.87660
 Alpha virt. eigenvalues --    0.88051   0.88481   0.88871   0.89328   0.90508
 Alpha virt. eigenvalues --    0.91232   0.91426   0.92098   0.92409   0.92573
 Alpha virt. eigenvalues --    0.92966   0.93253   0.93942   0.94353   0.94624
 Alpha virt. eigenvalues --    0.94665   0.95228   0.95971   0.96372   0.96621
 Alpha virt. eigenvalues --    0.97523   0.97971   0.98068   0.98385   0.98617
 Alpha virt. eigenvalues --    0.99221   0.99653   0.99886   1.00254   1.01429
 Alpha virt. eigenvalues --    1.01514   1.01879   1.02178   1.02550   1.02672
 Alpha virt. eigenvalues --    1.03439   1.04557   1.04945   1.05238   1.05664
 Alpha virt. eigenvalues --    1.05821   1.06327   1.06680   1.07038   1.07612
 Alpha virt. eigenvalues --    1.07969   1.08390   1.08746   1.09270   1.09823
 Alpha virt. eigenvalues --    1.10302   1.11009   1.11290   1.11527   1.12007
 Alpha virt. eigenvalues --    1.12539   1.12679   1.12998   1.13526   1.13617
 Alpha virt. eigenvalues --    1.14192   1.14427   1.14858   1.14915   1.15321
 Alpha virt. eigenvalues --    1.15650   1.16165   1.16477   1.17032   1.17316
 Alpha virt. eigenvalues --    1.18021   1.18681   1.18853   1.20404   1.20822
 Alpha virt. eigenvalues --    1.21145   1.21413   1.21863   1.22344   1.22819
 Alpha virt. eigenvalues --    1.22904   1.23095   1.23558   1.23751   1.23985
 Alpha virt. eigenvalues --    1.25142   1.25778   1.26307   1.26632   1.26905
 Alpha virt. eigenvalues --    1.27555   1.27940   1.28119   1.28690   1.30246
 Alpha virt. eigenvalues --    1.31488   1.31654   1.31915   1.32953   1.33114
 Alpha virt. eigenvalues --    1.33777   1.33983   1.34371   1.34704   1.35320
 Alpha virt. eigenvalues --    1.36361   1.36860   1.37509   1.38495   1.39080
 Alpha virt. eigenvalues --    1.39241   1.39623   1.40149   1.40289   1.40942
 Alpha virt. eigenvalues --    1.41160   1.41471   1.42223   1.42779   1.43083
 Alpha virt. eigenvalues --    1.44502   1.44546   1.45132   1.45927   1.46201
 Alpha virt. eigenvalues --    1.46675   1.46743   1.47041   1.47529   1.47961
 Alpha virt. eigenvalues --    1.48200   1.48617   1.48865   1.49581   1.49913
 Alpha virt. eigenvalues --    1.50306   1.51067   1.51378   1.52461   1.53335
 Alpha virt. eigenvalues --    1.53920   1.54410   1.55191   1.55309   1.55472
 Alpha virt. eigenvalues --    1.56904   1.57373   1.57566   1.57817   1.58490
 Alpha virt. eigenvalues --    1.59414   1.59667   1.59916   1.61239   1.64507
 Alpha virt. eigenvalues --    1.65494   1.66771   1.67334   1.67464   1.69197
 Alpha virt. eigenvalues --    1.69542   1.69552   1.70690   1.70887   1.71458
 Alpha virt. eigenvalues --    1.71840   1.73271   1.74818   1.75759   1.76575
 Alpha virt. eigenvalues --    1.77421   1.78475   1.78744   1.79261   1.79494
 Alpha virt. eigenvalues --    1.82478   1.82497   1.83089   1.84660   1.85994
 Alpha virt. eigenvalues --    1.86868   1.87821   1.88284   1.92279   1.92743
 Alpha virt. eigenvalues --    1.93433   1.94269   1.97501   1.97925   1.98183
 Alpha virt. eigenvalues --    1.98682   1.99587   2.00483   2.00928   2.01262
 Alpha virt. eigenvalues --    2.02691   2.03063   2.04007   2.04316   2.04627
 Alpha virt. eigenvalues --    2.06306   2.06508   2.07507   2.08522   2.08666
 Alpha virt. eigenvalues --    2.09191   2.09299   2.09945   2.10706   2.12044
 Alpha virt. eigenvalues --    2.14259   2.14540   2.14758   2.15426   2.16053
 Alpha virt. eigenvalues --    2.16362   2.16824   2.17292   2.17515   2.17792
 Alpha virt. eigenvalues --    2.18011   2.18213   2.19093   2.19537   2.19703
 Alpha virt. eigenvalues --    2.19962   2.20094   2.20440   2.20550   2.21090
 Alpha virt. eigenvalues --    2.21336   2.21662   2.22231   2.22663   2.23033
 Alpha virt. eigenvalues --    2.23747   2.24684   2.25256   2.25941   2.26320
 Alpha virt. eigenvalues --    2.26635   2.26764   2.28337   2.29252   2.30748
 Alpha virt. eigenvalues --    2.31288   2.31470   2.31793   2.32254   2.33369
 Alpha virt. eigenvalues --    2.33597   2.34355   2.35601   2.35768   2.36372
 Alpha virt. eigenvalues --    2.37777   2.38021   2.39178   2.39724   2.40754
 Alpha virt. eigenvalues --    2.41340   2.42048   2.43085   2.43453   2.43812
 Alpha virt. eigenvalues --    2.44504   2.45140   2.45360   2.45881   2.46497
 Alpha virt. eigenvalues --    2.47718   2.48339   2.48652   2.48997   2.49641
 Alpha virt. eigenvalues --    2.50052   2.50916   2.51038   2.51403   2.51765
 Alpha virt. eigenvalues --    2.52912   2.53341   2.54053   2.54379   2.54623
 Alpha virt. eigenvalues --    2.55822   2.56630   2.57103   2.58057   2.58131
 Alpha virt. eigenvalues --    2.58843   2.59630   2.60080   2.60590   2.61714
 Alpha virt. eigenvalues --    2.62317   2.62547   2.63132   2.63540   2.64050
 Alpha virt. eigenvalues --    2.64813   2.65210   2.66628   2.67228   2.67550
 Alpha virt. eigenvalues --    2.68099   2.68512   2.68610   2.69017   2.69445
 Alpha virt. eigenvalues --    2.69948   2.69959   2.70183   2.71351   2.71976
 Alpha virt. eigenvalues --    2.72490   2.72864   2.74037   2.74208   2.74833
 Alpha virt. eigenvalues --    2.75957   2.76520   2.77357   2.77636   2.78643
 Alpha virt. eigenvalues --    2.78929   2.82081   2.82975   2.83165   2.84067
 Alpha virt. eigenvalues --    2.84579   2.84604   2.86410   2.86703   2.88053
 Alpha virt. eigenvalues --    2.88295   2.89021   2.89346   2.89859   2.90332
 Alpha virt. eigenvalues --    2.90658   2.91899   2.92425   2.92517   2.92566
 Alpha virt. eigenvalues --    2.93179   2.94052   2.94565   2.95502   2.96314
 Alpha virt. eigenvalues --    2.96537   2.97188   2.97519   2.97805   2.98735
 Alpha virt. eigenvalues --    2.99120   2.99409   2.99800   3.00588   3.00882
 Alpha virt. eigenvalues --    3.01311   3.02055   3.03562   3.03799   3.04318
 Alpha virt. eigenvalues --    3.04529   3.04819   3.05048   3.05603   3.06066
 Alpha virt. eigenvalues --    3.06566   3.06620   3.06864   3.07525   3.07593
 Alpha virt. eigenvalues --    3.07908   3.08009   3.08702   3.09344   3.09524
 Alpha virt. eigenvalues --    3.09733   3.09974   3.10067   3.11000   3.11120
 Alpha virt. eigenvalues --    3.12170   3.12255   3.13076   3.13467   3.14099
 Alpha virt. eigenvalues --    3.14554   3.14856   3.15261   3.15921   3.16058
 Alpha virt. eigenvalues --    3.16636   3.16730   3.17032   3.17643   3.18097
 Alpha virt. eigenvalues --    3.18398   3.18513   3.18970   3.19407   3.19577
 Alpha virt. eigenvalues --    3.19857   3.20465   3.20935   3.23017   3.23390
 Alpha virt. eigenvalues --    3.23571   3.23876   3.23929   3.24288   3.24655
 Alpha virt. eigenvalues --    3.24927   3.25069   3.25562   3.26285   3.26348
 Alpha virt. eigenvalues --    3.27136   3.27820   3.28023   3.28566   3.28712
 Alpha virt. eigenvalues --    3.29349   3.29645   3.30774   3.31379   3.31809
 Alpha virt. eigenvalues --    3.34122   3.34493   3.34588   3.34989   3.35793
 Alpha virt. eigenvalues --    3.36259   3.36558   3.36658   3.37419   3.37980
 Alpha virt. eigenvalues --    3.38087   3.39127   3.39560   3.39972   3.40474
 Alpha virt. eigenvalues --    3.40702   3.40962   3.41769   3.41967   3.42265
 Alpha virt. eigenvalues --    3.43306   3.43655   3.43917   3.45102   3.45438
 Alpha virt. eigenvalues --    3.45566   3.45770   3.46156   3.46278   3.47099
 Alpha virt. eigenvalues --    3.47658   3.48745   3.50161   3.50543   3.50925
 Alpha virt. eigenvalues --    3.51276   3.51841   3.52099   3.52257   3.52810
 Alpha virt. eigenvalues --    3.53211   3.53374   3.53696   3.54396   3.54668
 Alpha virt. eigenvalues --    3.55502   3.56351   3.57042   3.57150   3.57393
 Alpha virt. eigenvalues --    3.57632   3.58035   3.58246   3.58778   3.59113
 Alpha virt. eigenvalues --    3.59213   3.60372   3.60470   3.60955   3.61774
 Alpha virt. eigenvalues --    3.63807   3.64342   3.64382   3.65355   3.66362
 Alpha virt. eigenvalues --    3.66865   3.67212   3.68346   3.69116   3.69295
 Alpha virt. eigenvalues --    3.69687   3.69841   3.71377   3.71628   3.71743
 Alpha virt. eigenvalues --    3.74193   3.74589   3.75182   3.75484   3.75761
 Alpha virt. eigenvalues --    3.79152   3.79476   3.79756   3.80644   3.80824
 Alpha virt. eigenvalues --    3.80878   3.81161   3.81412   3.81670   3.82622
 Alpha virt. eigenvalues --    3.82874   3.83434   3.87666   3.87767   3.88321
 Alpha virt. eigenvalues --    3.89092   3.90411   3.90729   3.90838   3.91198
 Alpha virt. eigenvalues --    3.91562   3.91736   3.92110   3.92718   3.94528
 Alpha virt. eigenvalues --    3.94621   3.95467   3.96622   3.96828   3.97344
 Alpha virt. eigenvalues --    3.98192   3.98921   3.99241   3.99690   3.99895
 Alpha virt. eigenvalues --    4.01109   4.01206   4.01534   4.01642   4.01996
 Alpha virt. eigenvalues --    4.02206   4.02774   4.03223   4.03336   4.03702
 Alpha virt. eigenvalues --    4.04205   4.04445   4.05469   4.06366   4.06490
 Alpha virt. eigenvalues --    4.07010   4.07630   4.08968   4.09165   4.09664
 Alpha virt. eigenvalues --    4.09928   4.11115   4.11463   4.12577   4.13384
 Alpha virt. eigenvalues --    4.14410   4.14545   4.14780   4.14799   4.15390
 Alpha virt. eigenvalues --    4.15617   4.15671   4.15867   4.16007   4.16165
 Alpha virt. eigenvalues --    4.16581   4.16730   4.16836   4.18304   4.18456
 Alpha virt. eigenvalues --    4.18893   4.18951   4.19291   4.20266   4.20632
 Alpha virt. eigenvalues --    4.21625   4.22838   4.22898   4.23669   4.24604
 Alpha virt. eigenvalues --    4.25229   4.25412   4.26333   4.28830   4.29983
 Alpha virt. eigenvalues --    4.30322   4.30801   4.31152   4.31358   4.32240
 Alpha virt. eigenvalues --    4.32731   4.33042   4.33309   4.33695   4.34008
 Alpha virt. eigenvalues --    4.34158   4.34712   4.35571   4.36358   4.37222
 Alpha virt. eigenvalues --    4.37726   4.38683   4.38836   4.40919   4.41500
 Alpha virt. eigenvalues --    4.41959   4.42576   4.43328   4.43884   4.44672
 Alpha virt. eigenvalues --    4.44906   4.45467   4.46394   4.46715   4.49093
 Alpha virt. eigenvalues --    4.53271   4.54370   4.54583   4.56813   4.58764
 Alpha virt. eigenvalues --    4.59049   4.59087   4.59540   4.66055   4.67692
 Alpha virt. eigenvalues --    4.68159   4.68728   4.70134   4.70698   4.71641
 Alpha virt. eigenvalues --    4.72216   4.76411   4.76649   4.77217   4.77451
 Alpha virt. eigenvalues --    4.79426   4.80738   4.81309   4.82146   4.82358
 Alpha virt. eigenvalues --    4.83834   4.83934   4.84260   4.84539   4.85899
 Alpha virt. eigenvalues --    4.87077   4.87764   4.88235   4.88777   4.88988
 Alpha virt. eigenvalues --    4.89838   4.89984   4.90182   4.90286   4.90430
 Alpha virt. eigenvalues --    4.90898   4.91742   4.93876   4.94375   4.95439
 Alpha virt. eigenvalues --    4.96022   4.97373   4.97500   4.97821   4.98202
 Alpha virt. eigenvalues --    4.98449   4.99248   4.99476   5.00012   5.08296
 Alpha virt. eigenvalues --    5.08489   5.08629   5.09017   5.09373   5.09591
 Alpha virt. eigenvalues --    5.09736   5.10164   5.16147   5.16237   5.16661
 Alpha virt. eigenvalues --    5.16905   5.17822   5.18278   5.19041   5.19265
 Alpha virt. eigenvalues --    5.19744   5.20544   5.20832   5.20967   5.21129
 Alpha virt. eigenvalues --    5.21365   5.21516   5.22130   5.22361   5.22486
 Alpha virt. eigenvalues --    5.22787   5.23031   5.24835   5.25298   5.25425
 Alpha virt. eigenvalues --    5.26124   5.26642   5.26763   5.27511   5.27736
 Alpha virt. eigenvalues --    5.31615   5.31733   5.32095   5.32215   5.32549
 Alpha virt. eigenvalues --    5.32857   5.33096   5.33944   5.35026   5.35636
 Alpha virt. eigenvalues --    5.36074   5.36275   5.37394   5.37577   5.38711
 Alpha virt. eigenvalues --    5.39255   5.39816   5.40049   5.40497   5.40666
 Alpha virt. eigenvalues --    5.41462   5.41552   5.41878   5.41989   5.44671
 Alpha virt. eigenvalues --    5.45070   5.45601   5.46685   5.51011   5.51194
 Alpha virt. eigenvalues --    5.51865   5.52212   5.52639   5.53027   5.53388
 Alpha virt. eigenvalues --    5.54662   5.56541   5.56683   5.57414   5.57858
 Alpha virt. eigenvalues --    5.60970   5.61122   5.61466   5.61864   5.65003
 Alpha virt. eigenvalues --    5.65330   5.65362   5.66083   5.70189   5.70521
 Alpha virt. eigenvalues --    5.71057   5.71866   5.75333   5.75816   5.76609
 Alpha virt. eigenvalues --    5.77190   5.78136   5.78445   5.79065   5.79251
 Alpha virt. eigenvalues --    5.84762   5.85751   5.86619   5.86863   5.88967
 Alpha virt. eigenvalues --    5.89650   5.89899   5.90201   5.94518   5.94607
 Alpha virt. eigenvalues --    5.94959   5.95508   5.95616   5.95906   5.96550
 Alpha virt. eigenvalues --    5.96746   5.96893   5.97218   5.97833   5.98657
 Alpha virt. eigenvalues --    5.99473   6.00024   6.00708   6.01047   6.08223
 Alpha virt. eigenvalues --    6.08528   6.09356   6.09955   6.14368   6.14615
 Alpha virt. eigenvalues --    6.15068   6.15611   6.19791   6.20174   6.20684
 Alpha virt. eigenvalues --    6.21237   6.21447   6.21589   6.21796   6.25101
 Alpha virt. eigenvalues --    6.27029   6.27517   6.28951   6.29022   6.34269
 Alpha virt. eigenvalues --    6.35255   6.35555   6.37163   6.41439   6.42038
 Alpha virt. eigenvalues --    6.42443   6.43258   6.44509   6.44842   6.45345
 Alpha virt. eigenvalues --    6.45601   6.45659   6.46152   6.46761   6.48546
 Alpha virt. eigenvalues --    6.74099   6.74495   6.74762   6.75526   6.75899
 Alpha virt. eigenvalues --    6.75975   6.76821   6.77128   6.79933   6.80568
 Alpha virt. eigenvalues --    6.80676   6.83719   6.85891   6.86333   6.86555
 Alpha virt. eigenvalues --    6.87897   6.89538   6.90268   6.90657   6.90859
 Alpha virt. eigenvalues --    6.92155   6.92402   6.92955   6.93286   6.93853
 Alpha virt. eigenvalues --    6.94546   6.94868   6.97173   6.99511   7.00368
 Alpha virt. eigenvalues --    7.00406   7.02352   7.07062   7.08848   7.11296
 Alpha virt. eigenvalues --    7.15432   7.18753   7.19273   7.20449   7.20904
 Alpha virt. eigenvalues --    7.30193   7.31122   7.31442   7.31699   7.35096
 Alpha virt. eigenvalues --    7.35432   7.35855   7.37068   7.47741   7.48918
 Alpha virt. eigenvalues --    7.49148   7.49907   7.55622   7.55775   7.56257
 Alpha virt. eigenvalues --    7.56699   9.65166   9.69107   9.76734  10.01336
 Alpha virt. eigenvalues --   10.40411  11.02920  11.04499  11.10408  11.13842
 Alpha virt. eigenvalues --   11.22370  11.23588  11.28818  11.37228  11.41755
 Alpha virt. eigenvalues --   11.43218  11.46695  11.53299  12.31306  12.31771
 Alpha virt. eigenvalues --   12.32765  12.37192  13.02707  13.12512  13.14431
 Alpha virt. eigenvalues --   13.21185  13.43372  13.43909  13.48509  13.50874
          Condensed to atoms (all electrons):
 Mulliken charges:
               1
     1  Pb   1.238066
     2  Cl  -0.723567
     3  Cl  -0.729167
     4  O   -0.377800
     5  C    0.389232
     6  O   -0.248661
     7  O   -0.231740
     8  C    0.069457
     9  C    0.012532
    10  C   -0.286725
    11  H    0.123986
    12  H    0.118454
    13  H    0.105017
    14  H    0.111541
    15  H    0.113146
    16  H    0.134080
    17  O   -0.386202
    18  C    0.392591
    19  O   -0.259035
    20  O   -0.230019
    21  C    0.069078
    22  C    0.013816
    23  C   -0.293278
    24  H    0.123235
    25  H    0.116825
    26  H    0.111296
    27  H    0.109003
    28  H    0.117904
    29  H    0.135683
    30  O   -0.417540
    31  C    0.410309
    32  O   -0.224662
    33  O   -0.221876
    34  C    0.067219
    35  C    0.013125
    36  C   -0.281286
    37  H    0.124925
    38  H    0.117292
    39  H    0.112537
    40  H    0.109076
    41  H    0.112026
    42  H    0.136463
    43  O   -0.443692
    44  C    0.473410
    45  O   -0.220240
    46  O   -0.229771
    47  C    0.065650
    48  C   -0.007267
    49  C   -0.274623
    50  H    0.130205
    51  H    0.136098
    52  H    0.106583
    53  H    0.114029
    54  H    0.117572
    55  H    0.135688
 Sum of Mulliken charges =  -0.00000
 Mulliken charges with hydrogens summed into heavy atoms:
               1
     1  Pb   1.238066
     2  Cl  -0.723567
     3  Cl  -0.729167
     4  O   -0.377800
     5  C    0.389232
     6  O   -0.248661
     7  O   -0.231740
     8  C    0.203538
     9  C    0.254973
    10  C    0.042978
    17  O   -0.386202
    18  C    0.392591
    19  O   -0.259035
    20  O   -0.230019
    21  C    0.204761
    22  C    0.253875
    23  C    0.044926
    30  O   -0.417540
    31  C    0.410309
    32  O   -0.224662
    33  O   -0.221876
    34  C    0.203682
    35  C    0.255343
    36  C    0.052354
    43  O   -0.443692
    44  C    0.473410
    45  O   -0.220240
    46  O   -0.229771
    47  C    0.201338
    48  C    0.259037
    49  C    0.063561
 Electronic spatial extent (au):  <R**2>=          16827.2461
 Charge=              0.0000 electrons
 Dipole moment (field-independent basis, Debye):
    X=              3.1851    Y=              7.1872    Z=             -3.9195  Tot=              8.7843
 Quadrupole moment (field-independent basis, Debye-Ang):
   XX=            -64.9071   YY=           -159.7080   ZZ=           -221.9214
   XY=              4.6219   XZ=              4.3823   YZ=            -10.4768
 Traceless Quadrupole moment (field-independent basis, Debye-Ang):
   XX=             83.9384   YY=            -10.8625   ZZ=            -73.0759
   XY=              4.6219   XZ=              4.3823   YZ=            -10.4768
 Octapole moment (field-independent basis, Debye-Ang**2):
  XXX=             71.9452  YYY=            103.0682  ZZZ=            -69.3234  XYY=            -63.2166
  XXY=            -60.1882  XXZ=            -13.2731  XZZ=             -6.3165  YZZ=              6.3227
  YYZ=            -38.7263  XYZ=             43.2983
 Hexadecapole moment (field-independent basis, Debye-Ang**3):
 XXXX=          -8865.8369 YYYY=          -6654.5436 ZZZZ=          -1683.9960 XXXY=            211.3324
 XXXZ=            -45.7740 YYYX=           -125.2331 YYYZ=           -121.6864 ZZZX=             41.8192
 ZZZY=             -1.2032 XXYY=          -1838.7448 XXZZ=          -2320.4976 YYZZ=          -1470.5565
 XXYZ=            -38.7726 YYXZ=             49.4893 ZZXY=             16.7246
 N-N= 3.735270567756D+03 E-N=-1.324913175752D+04  KE= 2.435594958081D+03
 Unable to Open any file for archive entry.
 1\1\GINC-MPCL019\SP\RCAM-B3LYP TD-FC\Gen\C16H24Cl2O12Pb1\EDBA4025\16-A
 pr-2021\0\\# cam-b3lyp/gen pseudo=read TD=NStates=10 Geom=Check Guess=
 Read empiricaldispersion=gd3bj SCRF=(read)\\PbCl2_PC\\0,1\Pb,-0.175574
 2886,-0.1908723649,-0.2400013473\Cl,-1.7887391033,0.136757505,1.822294
 0257\Cl,0.4014036907,-2.6411585218,0.5687685264\O,-0.198079747,2.67552
 63485,0.0562819231\C,-1.3181641273,3.1023946251,-0.1745267397\O,-2.197
 3677721,2.5033956533,-1.0114420736\O,-1.822457106,4.2312649369,0.37445
 17038\C,-3.5037838942,3.1626312359,-0.8769556363\C,-3.1084080839,4.507
 8734737,-0.2428996248\C,-4.4242784366,2.3060387698,-0.0286729416\H,-2.
 9691396412,5.3152348021,-0.9879203602\H,-3.805604252,4.8366205923,0.54
 83590192\H,-4.0166194241,2.1908377658,0.9954524794\H,-4.5417553403,1.2
 986600562,-0.4700166651\H,-5.4208612079,2.787205965,0.0312052034\H,-3.
 891207527,3.2906381086,-1.9044211034\O,2.1425952994,-0.8170859959,-1.9
 263798108\C,3.0696966825,-1.4161717719,-1.4092249587\O,3.9470887335,-0
 .8559076798,-0.5357448263\O,3.3565138874,-2.7170065967,-1.6445546524\C
 ,4.7641619948,-1.9182718749,0.0636134207\C,4.5848342153,-3.0601957847,
 -0.9519768447\C,4.2538856073,-2.2170824352,1.4613842764\H,5.4022391783
 ,-3.1101288023,-1.6973974641\H,4.4456448049,-4.0466538137,-0.474227928
 5\H,3.2103246349,-2.5904683169,1.4234216643\H,4.2825211166,-1.30246122
 08,2.0839506185\H,4.8977451906,-2.985713459,1.933291611\H,5.8028507937
 ,-1.5395582397,0.0766069543\O,-2.394024629,-1.0934238082,-1.4857926824
 \C,-3.2429390486,-1.7103772966,-0.8527373998\O,-3.0882346209,-2.969501
 7057,-0.404761697\O,-4.4527179712,-1.1950042795,-0.5391350912\C,-4.204
 2475519,-3.2935642823,0.4959920603\C,-5.2449806025,-2.2270582465,0.108
 6321753\C,-3.7210717262,-3.2234072781,1.9323655265\H,-5.9948714925,-2.
 5932986345,-0.6185538445\H,-5.7487471409,-1.7740260845,0.9812041373\H,
 -3.3807779057,-2.1969945167,2.1787094841\H,-2.8777756339,-3.9226485489
 ,2.0898706912\H,-4.5467122186,-3.5085685213,2.6142988634\H,-4.53678720
 54,-4.3110056467,0.2201243779\O,1.6658998743,0.4102220343,1.3524781015
 \C,2.5803022069,1.1502034247,0.9878606374\O,2.6115680578,1.7864639168,
 -0.1881564674\O,3.6576828809,1.3967329197,1.7544414992\C,3.7593047649,
 2.7038783866,-0.2030165292\C,4.608501947,2.1656420302,0.962827887\C,3.
 2581598389,4.125273852,-0.035498903\H,5.4098815112,1.4781630138,0.6328
 12235\H,5.0233943593,2.9610615697,1.6067171083\H,2.7698324149,4.257841
 155,0.9504534891\H,2.5274163965,4.3724518606,-0.8283529402\H,4.1097493
 635,4.8300939944,-0.1076485304\H,4.2575682527,2.5527877319,-1.17783263
 68\\Version=ES64L-G16RevC.01\State=1-A\HF=-2451.0381789\RMSD=1.776e-09
 \PG=C01 [X(C16H24Cl2O12Pb1)]\\@
 The archive entry for this job was punched.


 DEFINE YOUR TERMS, YOU WILL PERMIT ME AGAIN TO SAY, 
 OR WE SHALL NEVER UNDERSTAND ONE ANOTHER.

                                    -- VOLTAIRE
 Job cpu time:       1 days  4 hours 44 minutes 14.1 seconds.
 Elapsed time:       0 days  5 hours 44 minutes 52.4 seconds.
 File lengths (MBytes):  RWF=   7364 Int=      0 D2E=      0 Chk=    560 Scr=      1
 Normal termination of Gaussian 16 at Fri Apr 16 21:55:02 2021.
