 Entering Gaussian System, Link 0=g16
 Input=02-PbI2_ACN_22800326.com
 Output=02-PbI2_ACN_22800326.log
 Initial command:
 /cm/shared/uniol/software/gaussian/g16.c01/g16/l1.exe "/scratch/22800326_edba4025/Gau-2520.inp" -scrdir="/scratch/22800326_edba4025/"
 Entering Link 1 = /cm/shared/uniol/software/gaussian/g16.c01/g16/l1.exe PID=      2522.
  
 Copyright (c) 1988-2019, Gaussian, Inc.  All Rights Reserved.
  
 This is part of the Gaussian(R) 16 program.  It is based on
 the Gaussian(R) 09 system (copyright 2009, Gaussian, Inc.),
 the Gaussian(R) 03 system (copyright 2003, Gaussian, Inc.),
 the Gaussian(R) 98 system (copyright 1998, Gaussian, Inc.),
 the Gaussian(R) 94 system (copyright 1995, Gaussian, Inc.),
 the Gaussian 92(TM) system (copyright 1992, Gaussian, Inc.),
 the Gaussian 90(TM) system (copyright 1990, Gaussian, Inc.),
 the Gaussian 88(TM) system (copyright 1988, Gaussian, Inc.),
 the Gaussian 86(TM) system (copyright 1986, Carnegie Mellon
 University), and the Gaussian 82(TM) system (copyright 1983,
 Carnegie Mellon University). Gaussian is a federally registered
 trademark of Gaussian, Inc.
  
 This software contains proprietary and confidential information,
 including trade secrets, belonging to Gaussian, Inc.
  
 This software is provided under written license and may be
 used, copied, transmitted, or stored only in accord with that
 written license.
  
 The following legend is applicable only to US Government
 contracts under FAR:
  
                    RESTRICTED RIGHTS LEGEND
  
 Use, reproduction and disclosure by the US Government is
 subject to restrictions as set forth in subparagraphs (a)
 and (c) of the Commercial Computer Software - Restricted
 Rights clause in FAR 52.227-19.
  
 Gaussian, Inc.
 340 Quinnipiac St., Bldg. 40, Wallingford CT 06492
  
  
 ---------------------------------------------------------------
 Warning -- This program may not be used in any manner that
 competes with the business of Gaussian, Inc. or will provide
 assistance to any competitor of Gaussian, Inc.  The licensee
 of this program is prohibited from giving any competitor of
 Gaussian, Inc. access to this program.  By using this program,
 the user acknowledges that Gaussian, Inc. is engaged in the
 business of creating and licensing software in the field of
 computational chemistry and represents and warrants to the
 licensee that it is not a competitor of Gaussian, Inc. and that
 it will not use this program in any manner prohibited above.
 ---------------------------------------------------------------
  

 Cite this work as:
 Gaussian 16, Revision C.01,
 M. J. Frisch, G. W. Trucks, H. B. Schlegel, G. E. Scuseria, 
 M. A. Robb, J. R. Cheeseman, G. Scalmani, V. Barone, 
 G. A. Petersson, H. Nakatsuji, X. Li, M. Caricato, A. V. Marenich, 
 J. Bloino, B. G. Janesko, R. Gomperts, B. Mennucci, H. P. Hratchian, 
 J. V. Ortiz, A. F. Izmaylov, J. L. Sonnenberg, D. Williams-Young, 
 F. Ding, F. Lipparini, F. Egidi, J. Goings, B. Peng, A. Petrone, 
 T. Henderson, D. Ranasinghe, V. G. Zakrzewski, J. Gao, N. Rega, 
 G. Zheng, W. Liang, M. Hada, M. Ehara, K. Toyota, R. Fukuda, 
 J. Hasegawa, M. Ishida, T. Nakajima, Y. Honda, O. Kitao, H. Nakai, 
 T. Vreven, K. Throssell, J. A. Montgomery, Jr., J. E. Peralta, 
 F. Ogliaro, M. J. Bearpark, J. J. Heyd, E. N. Brothers, K. N. Kudin, 
 V. N. Staroverov, T. A. Keith, R. Kobayashi, J. Normand, 
 K. Raghavachari, A. P. Rendell, J. C. Burant, S. S. Iyengar, 
 J. Tomasi, M. Cossi, J. M. Millam, M. Klene, C. Adamo, R. Cammi, 
 J. W. Ochterski, R. L. Martin, K. Morokuma, O. Farkas, 
 J. B. Foresman, and D. J. Fox, Gaussian, Inc., Wallingford CT, 2019.
 
 ******************************************
 Gaussian 16:  ES64L-G16RevC.01  3-Jul-2019
                11-Nov-2020 
 ******************************************
 %oldChk=01-PbI2_ACN
 %chk=02-PbI2_ACN
 %mem=16GB
 %NProcShared=4
 Will use up to    4 processors via shared memory.
 Copying data from "01-PbI2_ACN.chk" to current chk file "02-PbI2_ACN.chk"
 IOpt=  2 FromEx=T IUOpen= 4 IOptOp= 5 NList=   0 IFRang= 0 IUIn= 4 IUOut= 2.
 ----------------------------------------------------------------------
 # cam-b3lyp/gen pseudo=read TD=NStates=10 Geom=Check Guess=Read empiri
 caldispersion=gd3bj SCRF=(Solvent=CH3CN)
 ----------------------------------------------------------------------
 1/29=2,38=1,172=1/1;
 2/12=2,40=1/2;
 3/5=7,11=9,14=-4,16=1,17=8,25=1,30=1,70=2201,72=2,74=-40,116=-2,124=41/1,2,3,8;
 4/5=1/1;
 5/5=2,38=6,53=2/2;
 8/6=1,10=1,108=10/1;
 9/41=10,42=1,70=2/14;
 6/7=2,8=2,9=2,10=2/1;
 99/5=1,9=1/99;
 --------
 PbI2_ACN
 --------
 Structure from the checkpoint file:  "02-PbI2_ACN.chk"
 Charge =  0 Multiplicity = 1
 Redundant internal coordinates found in file.  (old form).
 Pb,0,0.7859315455,-0.9896448953,1.2195736658
 I,0,-2.2816456485,-0.738674328,1.4724536336
 I,0,0.8400519177,-1.1678327354,-1.8910119432
 C,0,4.141814227,1.1933479845,-1.0309473717
 H,0,4.0680410758,2.2730348781,-0.7975774472
 H,0,5.1657193683,0.9652933441,-1.3841338768
 H,0,3.4132107905,0.9375411756,-1.8275812661
 C,0,3.8267150674,0.4064680929,0.1466935616
 N,0,3.5390847854,-0.2370218562,1.0880186327
 C,0,-1.1658502224,0.9869909468,5.048958912
 H,0,-1.1185598961,2.0817347251,5.2056645313
 H,0,-1.2616355366,0.4809169683,6.0286997317
 H,0,-2.0471565211,0.7425928239,4.4205331047
 C,0,0.0252510586,0.526669796,4.360678155
 N,0,0.9747428216,0.1454123644,3.7815921081
 C,0,0.2489915087,-5.1622430655,-0.928092901
 H,0,1.0439774195,-5.929811674,-0.9909012122
 H,0,-0.7411420148,-5.656130021,-0.9576746705
 H,0,0.3396012806,-4.4668307095,-1.787916457
 C,0,0.3891364499,-4.3943286511,0.2941509341
 N,0,0.5038517586,-3.751738344,1.2717216954
 C,0,0.76930812,4.1085809843,0.3344875018
 H,0,-0.2379924876,4.5303697179,0.5157752336
 H,0,1.4990810249,4.6082266632,1.0002239928
 H,0,1.054967536,4.2884084803,-0.7199412209
 C,0,0.7588826497,2.6836643394,0.6003014294
 N,0,0.7499219213,1.5317729953,0.8105815429
 Recover connectivity data from disk.
                           ----------------------------
                           !    Current Parameters    !
                           ! (Angstroms and Degrees)  !
 --------------------------                            --------------------------
 ! Name  Definition              Value                                          !
 --------------------------------------------------------------------------------
 ! R1    R(1,2)                  3.0882                                         !
 ! R2    R(1,3)                  3.1162                                         !
 ! R3    R(1,9)                  2.8572                                         !
 ! R4    R(1,15)                 2.8085                                         !
 ! R5    R(1,21)                 2.7769                                         !
 ! R6    R(1,27)                 2.5546                                         !
 ! R7    R(4,5)                  1.1071                                         !
 ! R8    R(4,6)                  1.1069                                         !
 ! R9    R(4,7)                  1.1095                                         !
 ! R10   R(4,8)                  1.451                                          !
 ! R11   R(8,9)                  1.176                                          !
 ! R12   R(10,11)                1.1069                                         !
 ! R13   R(10,12)                1.1069                                         !
 ! R14   R(10,13)                1.1097                                         !
 ! R15   R(10,14)                1.4506                                         !
 ! R16   R(14,15)                1.1757                                         !
 ! R17   R(16,17)                1.1068                                         !
 ! R18   R(16,18)                1.1069                                         !
 ! R19   R(16,19)                1.1096                                         !
 ! R20   R(16,20)                1.4502                                         !
 ! R21   R(20,21)                1.1755                                         !
 ! R22   R(22,23)                1.107                                          !
 ! R23   R(22,24)                1.107                                          !
 ! R24   R(22,25)                1.1071                                         !
 ! R25   R(22,26)                1.4495                                         !
 ! R26   R(26,27)                1.171                                          !
 ! A1    A(2,1,3)               95.9487                                         !
 ! A2    A(2,1,9)              159.97                                           !
 ! A3    A(2,1,15)              87.6638                                         !
 ! A4    A(2,1,21)              88.762                                          !
 ! A5    A(2,1,27)              85.348                                          !
 ! A6    A(3,1,9)               87.2698                                         !
 ! A7    A(3,1,15)             158.8332                                         !
 ! A8    A(3,1,21)              87.9159                                         !
 ! A9    A(3,1,27)              84.0806                                         !
 ! A10   A(9,1,15)              82.5747                                         !
 ! A11   A(9,1,21)             111.1461                                         !
 ! A12   A(9,1,27)              75.2989                                         !
 ! A13   A(15,1,21)            113.0591                                         !
 ! A14   A(15,1,27)             75.4102                                         !
 ! A15   A(5,4,6)              109.2595                                         !
 ! A16   A(5,4,7)              109.4181                                         !
 ! A17   A(5,4,8)              110.0802                                         !
 ! A18   A(6,4,7)              109.3219                                         !
 ! A19   A(6,4,8)              110.3732                                         !
 ! A20   A(7,4,8)              108.3679                                         !
 ! A21   A(1,9,8)              114.6251                                         !
 ! A22   A(11,10,12)           109.3034                                         !
 ! A23   A(11,10,13)           109.3859                                         !
 ! A24   A(11,10,14)           110.2383                                         !
 ! A25   A(12,10,13)           109.3809                                         !
 ! A26   A(12,10,14)           110.2393                                         !
 ! A27   A(13,10,14)           108.2719                                         !
 ! A28   A(1,15,14)            121.7411                                         !
 ! A29   A(17,16,18)           109.3628                                         !
 ! A30   A(17,16,19)           109.3906                                         !
 ! A31   A(17,16,20)           110.2193                                         !
 ! A32   A(18,16,19)           109.39                                           !
 ! A33   A(18,16,20)           110.1961                                         !
 ! A34   A(19,16,20)           108.2605                                         !
 ! A35   A(1,21,20)            122.5502                                         !
 ! A36   A(23,22,24)           109.2329                                         !
 ! A37   A(23,22,25)           109.1997                                         !
 ! A38   A(23,22,26)           109.7536                                         !
 ! A39   A(24,22,25)           109.2297                                         !
 ! A40   A(24,22,26)           109.7641                                         !
 ! A41   A(25,22,26)           109.6437                                         !
 ! A42   L(21,1,27,2,-1)       174.11                                           !
 ! A43   L(4,8,9,3,-1)         178.3673                                         !
 ! A44   L(10,14,15,2,-1)      178.6485                                         !
 ! A45   L(16,20,21,3,-1)      178.8293                                         !
 ! A46   L(22,26,27,5,-1)      179.9354                                         !
 ! A47   L(1,27,26,4,-1)       178.362                                          !
 ! A48   L(21,1,27,2,-2)       188.685                                          !
 ! A49   L(4,8,9,3,-2)         180.5393                                         !
 ! A50   L(10,14,15,2,-2)      179.9467                                         !
 ! A51   L(16,20,21,3,-2)      179.9178                                         !
 ! A52   L(22,26,27,5,-2)      180.2135                                         !
 ! A53   L(1,27,26,4,-2)       179.6112                                         !
 ! D1    D(2,1,9,8)            -65.8391                                         !
 ! D2    D(3,1,9,8)             34.0719                                         !
 ! D3    D(15,1,9,8)          -127.3164                                         !
 ! D4    D(21,1,9,8)           120.7766                                         !
 ! D5    D(27,1,9,8)           -50.5212                                         !
 ! D6    D(2,1,15,14)           -4.1885                                         !
 ! D7    D(3,1,15,14)           96.2917                                         !
 ! D8    D(9,1,15,14)          158.2823                                         !
 ! D9    D(21,1,15,14)         -91.8462                                         !
 ! D10   D(27,1,15,14)          81.6105                                         !
 ! D11   D(2,1,21,20)           91.8504                                         !
 ! D12   D(3,1,21,20)           -4.149                                          !
 ! D13   D(9,1,21,20)          -90.4117                                         !
 ! D14   D(15,1,21,20)         178.7829                                         !
 ! D15   D(2,1,22,23)            8.5556                                         !
 ! D16   D(2,1,22,24)          129.1549                                         !
 ! D17   D(2,1,22,25)         -111.321                                          !
 ! D18   D(3,1,22,23)          105.0188                                         !
 ! D19   D(3,1,22,24)         -134.3819                                         !
 ! D20   D(3,1,22,25)          -14.8578                                         !
 ! D21   D(9,1,22,23)         -166.0224                                         !
 ! D22   D(9,1,22,24)          -45.4232                                         !
 ! D23   D(9,1,22,25)           74.101                                          !
 ! D24   D(15,1,22,23)         -80.0231                                         !
 ! D25   D(15,1,22,24)          40.5762                                         !
 ! D26   D(15,1,22,25)         160.1003                                         !
 ! D27   D(5,4,9,1)             92.9414                                         !
 ! D28   D(6,4,9,1)           -145.898                                          !
 ! D29   D(7,4,9,1)            -26.3294                                         !
 ! D30   D(11,10,15,1)        -115.945                                          !
 ! D31   D(12,10,15,1)         122.9036                                         !
 ! D32   D(13,10,15,1)           3.4691                                         !
 ! D33   D(17,16,21,1)         122.7868                                         !
 ! D34   D(18,16,21,1)        -116.0812                                         !
 ! D35   D(19,16,21,1)           3.327                                          !
 --------------------------------------------------------------------------------
                          Input orientation:                          
 ---------------------------------------------------------------------
 Center     Atomic      Atomic             Coordinates (Angstroms)
 Number     Number       Type             X           Y           Z
 ---------------------------------------------------------------------
      1         82           0        0.785932   -0.989645    1.219574
      2         53           0       -2.281646   -0.738674    1.472454
      3         53           0        0.840052   -1.167833   -1.891012
      4          6           0        4.141814    1.193348   -1.030947
      5          1           0        4.068041    2.273035   -0.797577
      6          1           0        5.165719    0.965293   -1.384134
      7          1           0        3.413211    0.937541   -1.827581
      8          6           0        3.826715    0.406468    0.146694
      9          7           0        3.539085   -0.237022    1.088019
     10          6           0       -1.165850    0.986991    5.048959
     11          1           0       -1.118560    2.081735    5.205665
     12          1           0       -1.261636    0.480917    6.028700
     13          1           0       -2.047157    0.742593    4.420533
     14          6           0        0.025251    0.526670    4.360678
     15          7           0        0.974743    0.145412    3.781592
     16          6           0        0.248992   -5.162243   -0.928093
     17          1           0        1.043977   -5.929812   -0.990901
     18          1           0       -0.741142   -5.656130   -0.957675
     19          1           0        0.339601   -4.466831   -1.787916
     20          6           0        0.389136   -4.394329    0.294151
     21          7           0        0.503852   -3.751738    1.271722
     22          6           0        0.769308    4.108581    0.334488
     23          1           0       -0.237992    4.530370    0.515775
     24          1           0        1.499081    4.608227    1.000224
     25          1           0        1.054968    4.288408   -0.719941
     26          6           0        0.758883    2.683664    0.600301
     27          7           0        0.749922    1.531773    0.810582
 ---------------------------------------------------------------------
                    Distance matrix (angstroms):
                    1          2          3          4          5
     1  Pb   0.000000
     2  I    3.088198   0.000000
     3  I    3.116155   4.608912   0.000000
     4  C    4.592630   7.159648   4.149279   0.000000
     5  H    5.048388   7.385253   4.843045   1.107081   0.000000
     6  H    5.457437   8.156399   4.849593   1.106857   1.805307
     7  H    4.461143   6.792004   3.325322   1.109471   1.809214
     8  C    3.513768   6.354609   3.943453   1.450967   2.105696
     9  N    2.857202   5.854942   4.126234   2.626644   3.183654
    10  C    4.730828   4.124841   7.538574   8.073360   7.951699
    11  H    5.380463   4.821238   8.047277   8.207076   7.935763
    12  H    5.429804   4.825682   8.358068   8.918713   8.843936
    13  H    4.612285   3.307614   7.198701   8.259853   8.183311
    14  C    3.569928   3.907008   6.528313   6.816170   6.782444
    15  N    2.808548   4.088740   5.824190   5.855685   5.921492
    16  C    4.723489   5.633357   4.151130   7.453736   8.359757
    17  H    5.418306   6.638960   4.850591   7.767728   8.744657
    18  H    5.371075   5.697372   4.849341   8.412133   9.274995
    19  H    4.618986   5.603579   3.338333   6.860572   7.765811
    20  C    3.550454   4.678171   3.922823   6.860073   7.692850
    21  N    2.776950   4.108265   4.097863   6.556747   7.299544
    22  C    5.174511   5.839449   5.726988   4.662273   3.941122
    23  H    5.658119   5.731891   6.278879   5.719333   5.036108
    24  H    5.647377   6.565535   6.492798   4.771907   3.909574
    25  H    5.629560   6.419591   5.584636   4.382322   3.625792
    26  C    3.725242   4.660243   4.587729   4.040574   3.615690
    27  N    2.554627   3.844920   3.820288   3.874364   3.761058
                    6          7          8          9         10
     6  H    0.000000
     7  H    1.807955   0.000000
     8  C    2.109183   2.085854   0.000000
     9  N    3.194220   3.145817   1.175969   0.000000
    10  C    9.026291   8.261782   7.021034   6.270859   0.000000
    11  H    9.174097   8.444683   7.270175   6.635156   1.106913
    12  H    9.823218   9.153352   7.777844   6.926231   1.106877
    13  H    9.261173   8.300154   7.271936   6.578099   1.109662
    14  C    7.721377   7.066940   5.676552   4.862155   1.450637
    15  N    6.702329   6.167367   4.627568   3.738642   2.626140
    16  C    7.869491   6.930276   6.705656   6.256774   8.691375
    17  H    8.042752   7.312581   7.013287   6.554031   9.444861
    18  H    8.883475   7.841676   7.670726   7.202217   8.966107
    19  H    7.277529   6.217386   6.296961   6.033157   8.874312
    20  C    7.372783   6.486571   5.906466   5.275945   7.347434
    21  N    7.144016   6.329249   5.440385   4.647539   6.285776
    22  C    5.671186   4.660500   4.805064   5.208045   5.976237
    23  H    6.746816   5.633030   5.802123   6.109157   5.828053
    24  H    5.692132   5.013413   4.878644   5.257923   6.050410
    25  H    5.327525   4.244584   4.848000   5.469833   7.007967
    26  C    5.129424   3.998627   3.847464   4.061748   5.135548
    27  N    4.963561   3.795540   3.342711   3.314368   4.683035
                   11         12         13         14         15
    11  H    0.000000
    12  H    1.805679   0.000000
    13  H    1.808874   1.808789   0.000000
    14  C    2.107257   2.107241   2.084485   0.000000
    15  N    3.187357   3.188016   3.145909   1.175684   0.000000
    16  C    9.590015   9.084284   8.291392   7.770771   7.132955
    17  H   10.356586   9.782029   9.130154   8.447684   7.725920
    18  H    9.899684   9.313629   8.460168   8.191413   7.685233
    19  H    9.691239   9.388485   8.448642   7.927110   7.259175
    20  C    8.266530   7.705720   7.024992   6.394160   5.754514
    21  N    7.220633   6.607659   6.051584   5.298631   4.659289
    22  C    5.603616   7.050442   5.996509   5.440029   5.256562
    23  H    5.363420   6.916520   5.733015   5.557175   5.600369
    24  H    5.560660   7.066952   6.262383   5.488527   5.284662
    25  H    6.686287   8.087509   6.972837   6.404974   6.118387
    26  C    5.009639   6.196943   5.122088   4.396734   4.075528
    27  N    4.807332   5.690292   4.634458   3.760128   3.286251
                   16         17         18         19         20
    16  C    0.000000
    17  H    1.106846   0.000000
    18  H    1.106871   1.806283   0.000000
    19  H    1.109552   1.808782   1.808795   0.000000
    20  C    1.450246   2.106629   2.106357   2.083918   0.000000
    21  N    2.625578   3.186723   3.185424   3.146382   1.175469
    22  C    9.370860  10.129236   9.964975   8.844599   8.511500
    23  H    9.811659  10.645605  10.304804   9.305387   8.949450
    24  H   10.037092  10.734149  10.686860   9.564245   9.098160
    25  H    9.487241  10.221818  10.108233   8.849098   8.767077
    26  C    8.009634   8.763856   8.615656   7.550428   7.094253
    27  N    6.934246   7.681605   7.550891   6.550099   5.959492
                   21         22         23         24         25
    21  N    0.000000
    22  C    7.920448   0.000000
    23  H    8.349557   1.106989   0.000000
    24  H    8.423373   1.106987   1.805042   0.000000
    25  H    8.301470   1.107140   1.804795   1.805128   0.000000
    26  C    6.475357   1.449536   2.100292   2.100422   2.099026
    27  N    5.309302   2.620492   3.170878   3.172029   3.167742
                   26         27
    26  C    0.000000
    27  N    1.170962   0.000000
 Stoichiometry    C8H12I2N4Pb
 Framework group  C1[X(C8H12I2N4Pb)]
 Deg. of freedom    75
 Full point group                 C1      NOp   1
 Largest Abelian subgroup         C1      NOp   1
 Largest concise Abelian subgroup C1      NOp   1
                         Standard orientation:                         
 ---------------------------------------------------------------------
 Center     Atomic      Atomic             Coordinates (Angstroms)
 Number     Number       Type             X           Y           Z
 ---------------------------------------------------------------------
      1         82           0        0.092340    0.014683   -0.753655
      2         53           0        2.022045   -1.408764    1.192367
      3         53           0       -2.435695   -0.246783    1.049426
      4          6           0       -2.829117    3.553507   -0.569072
      5          1           0       -2.280240    4.434163   -0.183318
      6          1           0       -3.728011    3.894929   -1.117299
      7          1           0       -3.139317    2.910989    0.280559
      8          6           0       -1.970721    2.774537   -1.441808
      9          7           0       -1.269658    2.120462   -2.122690
     10          6           0        4.751754    0.805471   -0.966374
     11          1           0        5.179585    1.760327   -0.605171
     12          1           0        5.420939    0.371873   -1.734072
     13          1           0        4.659612    0.098204   -0.116295
     14          6           0        3.429189    1.025800   -1.520113
     15          7           0        2.346674    1.188006   -1.949161
     16          6           0       -2.564551   -3.886133   -0.943162
     17          1           0       -3.274384   -4.109046   -1.762648
     18          1           0       -2.202491   -4.834995   -0.503005
     19          1           0       -3.079579   -3.290370   -0.161551
     20          6           0       -1.447822   -3.108736   -1.444942
     21          7           0       -0.547495   -2.461623   -1.835304
     22          6           0        0.943182    4.261459    2.077691
     23          1           0        1.756424    4.084427    2.807570
     24          1           0        1.223400    5.104150    1.416805
     25          1           0        0.014439    4.518702    2.622688
     26          6           0        0.728004    3.067260    1.284760
     27          7           0        0.550727    2.101385    0.646944
 ---------------------------------------------------------------------
 Rotational constants (GHZ):           0.2160453           0.1683033           0.1350444
 General basis read from cards:  (5D, 7F)
 ======================================================================================================
                                       Pseudopotential Parameters
 ======================================================================================================
  Center     Atomic      Valence      Angular      Power
  Number     Number     Electrons     Momentum     of R      Exponent        Coefficient   SO-Coeffient
 ======================================================================================================
    1         82            4
                                      G and up 
                                                     0      376.5803786       -0.17896050    0.00000000
                                                     1       86.4840014      -54.39723370    0.00000000
                                                     2       26.6784276     -199.70617590    0.00000000
                                                     2        9.4261986      -79.12239410    0.00000000
                                                     2        2.7101719      -24.98690200    0.00000000
                                                     2        0.8792031       -4.43979390    0.00000000
                                      S - G
                                                     0      132.4248796        2.81153860    0.00000000
                                                     1       47.2376044       65.03672050    0.00000000
                                                     2       17.6312727      212.78685450    0.00000000
                                                     2        5.4744712       72.10531750    0.00000000
                                                     2        1.2634856       33.01409400    0.00000000
                                                     2        0.7651447       -5.77084610    0.00000000
                                      P - G
                                                     0       67.8966454        4.87549110    0.00000000
                                                     1       24.9898225       63.91481020    0.00000000
                                                     2       10.7052939      148.10643580    0.00000000
                                                     2        3.2792568       47.31063010    0.00000000
                                                     2        0.8452522       21.03067020    0.00000000
                                                     2        0.6416245       -7.09307720    0.00000000
                                      D - G
                                                     0       68.8336005        3.21613880    0.00000000
                                                     1       24.2815874       55.73860860    0.00000000
                                                     2        9.4532762      121.41683510    0.00000000
                                                     2        2.4788185       19.34560640    0.00000000
                                                     2        2.4789161       15.36751680    0.00000000
                                                     2        0.5551738        6.12987240    0.00000000
                                      F - G
                                                     0      128.1021322        4.13536820    0.00000000
                                                     1       54.8029154       67.51284460    0.00000000
                                                     2       24.5529308      258.73731070    0.00000000
                                                     2        8.1144792      113.24782640    0.00000000
                                                     2        1.6931290       34.16802010    0.00000000
                                                     2        0.7670500       -6.55319560    0.00000000
    2         53            7
                                      F and up 
                                                     0        1.0715702       -0.07476210    0.00000000
                                                     1       44.1936028      -30.08112240    0.00000000
                                                     2       12.9367609      -75.37227210    0.00000000
                                                     2        3.1956412      -22.05637580    0.00000000
                                                     2        0.8589806       -1.69795850    0.00000000
                                      S - F
                                                     0      127.9202670        2.93800360    0.00000000
                                                     1       78.6211465       41.24712670    0.00000000
                                                     2       36.5146237      287.86800950    0.00000000
                                                     2        9.9065681      114.37585060    0.00000000
                                                     2        1.9420086       37.65477140    0.00000000
                                      P - F
                                                     0       13.0035304        2.22226300    0.00000000
                                                     1       76.0331404       39.40908310    0.00000000
                                                     2       24.1961684      177.40750020    0.00000000
                                                     2        6.4053433       77.98894620    0.00000000
                                                     2        1.5851786       25.75476410    0.00000000
                                      D - F
                                                     0       40.4278108        7.05243600    0.00000000
                                                     1       28.9084375       33.30416350    0.00000000
                                                     2       15.6268936      186.94538750    0.00000000
                                                     2        4.1442856       71.96883610    0.00000000
                                                     2        0.9377235        9.36306570    0.00000000
    3         53            7
                                      F and up 
                                                     0        1.0715702       -0.07476210    0.00000000
                                                     1       44.1936028      -30.08112240    0.00000000
                                                     2       12.9367609      -75.37227210    0.00000000
                                                     2        3.1956412      -22.05637580    0.00000000
                                                     2        0.8589806       -1.69795850    0.00000000
                                      S - F
                                                     0      127.9202670        2.93800360    0.00000000
                                                     1       78.6211465       41.24712670    0.00000000
                                                     2       36.5146237      287.86800950    0.00000000
                                                     2        9.9065681      114.37585060    0.00000000
                                                     2        1.9420086       37.65477140    0.00000000
                                      P - F
                                                     0       13.0035304        2.22226300    0.00000000
                                                     1       76.0331404       39.40908310    0.00000000
                                                     2       24.1961684      177.40750020    0.00000000
                                                     2        6.4053433       77.98894620    0.00000000
                                                     2        1.5851786       25.75476410    0.00000000
                                      D - F
                                                     0       40.4278108        7.05243600    0.00000000
                                                     1       28.9084375       33.30416350    0.00000000
                                                     2       15.6268936      186.94538750    0.00000000
                                                     2        4.1442856       71.96883610    0.00000000
                                                     2        0.9377235        9.36306570    0.00000000
    4          6
                                   No pseudopotential on this center.
    5          1
                                   No pseudopotential on this center.
    6          1
                                   No pseudopotential on this center.
    7          1
                                   No pseudopotential on this center.
    8          6
                                   No pseudopotential on this center.
    9          7
                                   No pseudopotential on this center.
   10          6
                                   No pseudopotential on this center.
   11          1
                                   No pseudopotential on this center.
   12          1
                                   No pseudopotential on this center.
   13          1
                                   No pseudopotential on this center.
   14          6
                                   No pseudopotential on this center.
   15          7
                                   No pseudopotential on this center.
   16          6
                                   No pseudopotential on this center.
   17          1
                                   No pseudopotential on this center.
   18          1
                                   No pseudopotential on this center.
   19          1
                                   No pseudopotential on this center.
   20          6
                                   No pseudopotential on this center.
   21          7
                                   No pseudopotential on this center.
   22          6
                                   No pseudopotential on this center.
   23          1
                                   No pseudopotential on this center.
   24          1
                                   No pseudopotential on this center.
   25          1
                                   No pseudopotential on this center.
   26          6
                                   No pseudopotential on this center.
   27          7
                                   No pseudopotential on this center.
 ======================================================================================================
 There are   624 symmetry adapted cartesian basis functions of A   symmetry.
 There are   552 symmetry adapted basis functions of A   symmetry.
   552 basis functions,   864 primitive gaussians,   624 cartesian basis functions
    53 alpha electrons       53 beta electrons
       nuclear repulsion energy       709.1441171952 Hartrees.
 NAtoms=   27 NActive=   27 NUniq=   27 SFac= 1.00D+00 NAtFMM=   60 NAOKFM=F Big=F
 Integral buffers will be    131072 words long.
 Raffenetti 1 integral format.
 Two-electron integral symmetry is turned on.
 Nuclear repulsion after empirical dispersion term =      709.1105076294 Hartrees.
 ------------------------------------------------------------------------------
 Polarizable Continuum Model (PCM)
 =================================
 Model                : PCM.
 Atomic radii         : UFF (Universal Force Field).
 Polarization charges : Total charges.
 Charge compensation  : None.
 Solution method      : On-the-fly selection.
 Cavity type          : Scaled VdW (van der Waals Surface) (Alpha=1.100).
 Cavity algorithm     : GePol (No added spheres)
                        Default sphere list used, NSphG=   27.
                        Lebedev-Laikov grids with approx.  5.0 points / Ang**2.
                        Smoothing algorithm: York/Karplus (Gamma=1.0000).
                        Polarization charges: spherical gaussians, with
                                              point-specific exponents (IZeta= 3).
                        Self-potential: point-specific (ISelfS= 7).
                        Self-field    : sphere-specific E.n sum rule (ISelfD= 2).
 Solvent              : Acetonitrile, Eps=  35.688000 Eps(inf)=   1.806874
 ------------------------------------------------------------------------------
 One-electron integrals computed using PRISM.
   1 Symmetry operations used in ECPInt.
 ECPInt:  NShTT=   20910 NPrTT=   76755 LenC2=   16660 LenP2D=   40799.
 LDataN:  DoStor=T MaxTD1= 7 Len=  274
 NBasis=   552 RedAO= T EigKep=  5.45D-04  NBF=   552
 NBsUse=   552 1.00D-06 EigRej= -1.00D+00 NBFU=   552
 Defaulting to unpruned grid for atomic number  82.
 Initial guess from the checkpoint file:  "02-PbI2_ACN.chk"
 B after Tr=    -0.000000   -0.000000    0.000000
         Rot=    1.000000   -0.000000    0.000000   -0.000000 Ang=   0.00 deg.
 Requested convergence on RMS density matrix=1.00D-08 within 128 cycles.
 Requested convergence on MAX density matrix=1.00D-06.
 Requested convergence on             energy=1.00D-06.
 No special actions if energy rises.
 Defaulting to unpruned grid for atomic number  82.
 Defaulting to unpruned grid for atomic number  82.
 Defaulting to unpruned grid for atomic number  82.
 Defaulting to unpruned grid for atomic number  82.
 Inv3:  Mode=1 IEnd=    26820300.
 Iteration    1 A*A^-1 deviation from unit magnitude is 3.55D-15 for    385.
 Iteration    1 A*A^-1 deviation from orthogonality  is 2.24D-15 for   1644    587.
 Iteration    1 A^-1*A deviation from unit magnitude is 3.22D-15 for    385.
 Iteration    1 A^-1*A deviation from orthogonality  is 2.99D-15 for   1661   1633.
 Error on total polarization charges =  0.01965
 SCF Done:  E(RCAM-B3LYP) =  -557.327084624     A.U. after   11 cycles
            NFock= 11  Conv=0.74D-08     -V/T= 2.0430
 DoSCS=F DFT=T ScalE2(SS,OS)=  1.000000  1.000000
 ExpMin= 5.98D-02 ExpMax= 1.14D+04 ExpMxC= 3.89D+02 IAcc=3 IRadAn=         5 AccDes= 0.00D+00
 HarFok:  IExCor=  205 AccDes= 0.00D+00 IRadAn=         5 IDoV=-2 UseB2=F ITyADJ=14
 ICtDFT= 12500011 ScaDFX=  1.000000  1.000000  1.000000  1.000000
 Defaulting to unpruned grid for atomic number  82.
 Range of M.O.s used for correlation:    13   552
 NBasis=   552 NAE=    53 NBE=    53 NFC=    12 NFV=     0
 NROrb=    540 NOA=    41 NOB=    41 NVA=   499 NVB=   499

 **** Warning!!: The largest alpha MO coefficient is  0.11260524D+02

 NEqPCM:  Using non-equilibrium solvation (IEInf=1, Eps=  35.6880, EpsInf=   1.8069)
 Inv3:  Mode=1 IEnd=    26820300.
 Iteration    1 A*A^-1 deviation from unit magnitude is 3.11D-15 for   1318.
 Iteration    1 A*A^-1 deviation from orthogonality  is 1.83D-15 for   1983    206.
 Iteration    1 A^-1*A deviation from unit magnitude is 3.33D-15 for   2164.
 Iteration    1 A^-1*A deviation from orthogonality  is 2.15D-15 for   2288    105.
 Orbital symmetries:
       Occupied  (A) (A) (A) (A) (A) (A) (A) (A) (A) (A) (A) (A)
                 (A) (A) (A) (A) (A) (A) (A) (A) (A) (A) (A) (A)
                 (A) (A) (A) (A) (A) (A) (A) (A) (A) (A) (A) (A)
                 (A) (A) (A) (A) (A) (A) (A) (A) (A) (A) (A) (A)
                 (A) (A) (A) (A) (A)
       Virtual   (A) (A) (A) (A) (A) (A) (A) (A) (A) (A) (A) (A)
                 (A) (A) (A) (A) (A) (A) (A) (A) (A) (A) (A) (A)
                 (A) (A) (A) (A) (A) (A) (A) (A) (A) (A) (A) (A)
                 (A) (A) (A) (A) (A) (A) (A) (A) (A) (A) (A) (A)
                 (A) (A) (A) (A) (A) (A) (A) (A) (A) (A) (A) (A)
                 (A) (A) (A) (A) (A) (A) (A) (A) (A) (A) (A) (A)
                 (A) (A) (A) (A) (A) (A) (A) (A) (A) (A) (A) (A)
                 (A) (A) (A) (A) (A) (A) (A) (A) (A) (A) (A) (A)
                 (A) (A) (A) (A) (A) (A) (A) (A) (A) (A) (A) (A)
                 (A) (A) (A) (A) (A) (A) (A) (A) (A) (A) (A) (A)
                 (A) (A) (A) (A) (A) (A) (A) (A) (A) (A) (A) (A)
                 (A) (A) (A) (A) (A) (A) (A) (A) (A) (A) (A) (A)
                 (A) (A) (A) (A) (A) (A) (A) (A) (A) (A) (A) (A)
                 (A) (A) (A) (A) (A) (A) (A) (A) (A) (A) (A) (A)
                 (A) (A) (A) (A) (A) (A) (A) (A) (A) (A) (A) (A)
                 (A) (A) (A) (A) (A) (A) (A) (A) (A) (A) (A) (A)
                 (A) (A) (A) (A) (A) (A) (A) (A) (A) (A) (A) (A)
                 (A) (A) (A) (A) (A) (A) (A) (A) (A) (A) (A) (A)
                 (A) (A) (A) (A) (A) (A) (A) (A) (A) (A) (A) (A)
                 (A) (A) (A) (A) (A) (A) (A) (A) (A) (A) (A) (A)
                 (A) (A) (A) (A) (A) (A) (A) (A) (A) (A) (A) (A)
                 (A) (A) (A) (A) (A) (A) (A) (A) (A) (A) (A) (A)
                 (A) (A) (A) (A) (A) (A) (A) (A) (A) (A) (A) (A)
                 (A) (A) (A) (A) (A) (A) (A) (A) (A) (A) (A) (A)
                 (A) (A) (A) (A) (A) (A) (A) (A) (A) (A) (A) (A)
                 (A) (A) (A) (A) (A) (A) (A) (A) (A) (A) (A) (A)
                 (A) (A) (A) (A) (A) (A) (A) (A) (A) (A) (A) (A)
                 (A) (A) (A) (A) (A) (A) (A) (A) (A) (A) (A) (A)
                 (A) (A) (A) (A) (A) (A) (A) (A) (A) (A) (A) (A)
                 (A) (A) (A) (A) (A) (A) (A) (A) (A) (A) (A) (A)
                 (A) (A) (A) (A) (A) (A) (A) (A) (A) (A) (A) (A)
                 (A) (A) (A) (A) (A) (A) (A) (A) (A) (A) (A) (A)
                 (A) (A) (A) (A) (A) (A) (A) (A) (A) (A) (A) (A)
                 (A) (A) (A) (A) (A) (A) (A) (A) (A) (A) (A) (A)
                 (A) (A) (A) (A) (A) (A) (A) (A) (A) (A) (A) (A)
                 (A) (A) (A) (A) (A) (A) (A) (A) (A) (A) (A) (A)
                 (A) (A) (A) (A) (A) (A) (A) (A) (A) (A) (A) (A)
                 (A) (A) (A) (A) (A) (A) (A) (A) (A) (A) (A) (A)
                 (A) (A) (A) (A) (A) (A) (A) (A) (A) (A) (A) (A)
                 (A) (A) (A) (A) (A) (A) (A) (A) (A) (A) (A) (A)
                 (A) (A) (A) (A) (A) (A) (A) (A) (A) (A) (A) (A)
                 (A) (A) (A) (A) (A) (A) (A)
    40 initial guesses have been made.
 Convergence on wavefunction:    0.001000000000000
 Iteration     1 Dimension    40 NMult     0 NNew     40
 CISAX will form    40 AO SS matrices at one time.
 Defaulting to unpruned grid for atomic number  82.
 Defaulting to unpruned grid for atomic number  82.
 Defaulting to unpruned grid for atomic number  82.
 Defaulting to unpruned grid for atomic number  82.
 New state      1 was old state      4
 New state      2 was old state      3
 New state      3 was old state      5
 New state      4 was old state      2
 New state      5 was old state      6
 New state      6 was old state      1
 New state      7 was old state      8
 New state      8 was old state      7
 Iteration     2 Dimension    60 NMult    40 NNew     20
 Iteration     3 Dimension    80 NMult    60 NNew     20
 Iteration     4 Dimension   100 NMult    80 NNew     20
 Iteration     5 Dimension   120 NMult   100 NNew     20
 Iteration     6 Dimension   126 NMult   120 NNew      6
 Iteration     7 Dimension   128 NMult   126 NNew      2
 Convergence on energies, max DE= 2.99D-06.
 ***********************************************************************
 Excited states from <AA,BB:AA,BB> singles matrix:
 ***********************************************************************
 
 Ground to excited state transition densities written to RWF  633
 Ground to excited state transition electric dipole moments (Au):
       state          X           Y           Z        Dip. S.      Osc.
         1         0.3927     -0.0970      0.0859      0.1710      0.0213
         2        -0.1959     -0.1304      0.2942      0.1419      0.0179
         3        -0.0787      0.0304     -0.3564      0.1341      0.0171
         4         0.1530      0.4203     -0.6592      0.6346      0.0815
         5         0.0202      0.3897     -0.1506      0.1750      0.0226
         6        -1.6862      0.0939     -0.0765      2.8579      0.3795
         7        -0.0371     -0.2370     -0.0179      0.0579      0.0078
         8         0.1874     -0.1634      0.0118      0.0619      0.0084
         9         0.3578     -0.7707     -0.1314      0.7393      0.1003
        10        -0.1712     -0.0224      0.0890      0.0377      0.0053
 Ground to excited state transition velocity dipole moments (Au):
       state          X           Y           Z        Dip. S.      Osc.
         1        -0.0437      0.0122     -0.0202      0.0025      0.0088
         2         0.0312      0.0330     -0.0803      0.0085      0.0300
         3         0.0239      0.0205      0.0663      0.0054      0.0188
         4        -0.0257     -0.0645      0.0988      0.0146      0.0504
         5        -0.0062     -0.0905      0.0064      0.0083      0.0285
         6         0.2641     -0.0036      0.0145      0.0700      0.2342
         7         0.0074      0.0529      0.0095      0.0029      0.0097
         8        -0.0245      0.0302      0.0004      0.0015      0.0050
         9        -0.0464      0.1472      0.0234      0.0244      0.0799
        10         0.0348      0.0008     -0.0053      0.0012      0.0040
 Ground to excited state transition magnetic dipole moments (Au):
       state          X           Y           Z
         1         0.1208      0.6010      0.1761
         2         0.0182     -0.1353     -0.0602
         3        -0.1189     -0.0468      0.0825
         4        -0.1579      0.0466      0.0074
         5         0.0415     -0.0584      0.1022
         6         0.0525     -0.9611     -0.1936
         7         0.2610     -0.0246      0.0013
         8         0.2817      0.0812      0.2927
         9         0.8832      0.1345      0.1275
        10         0.0308     -0.0552     -0.2178
 Ground to excited state transition velocity quadrupole moments (Au):
       state          XX          YY          ZZ          XY          XZ          YZ
         1         0.0073      0.0906     -0.0422     -0.0715     -0.1008      0.0725
         2         0.4349     -0.0316     -0.1142     -0.1084      0.0376      0.0610
         3         0.1469     -0.2393      0.0669      0.0966      0.1105      0.0401
         4         0.0377     -0.0655     -0.0487     -0.2047     -0.0334     -0.0598
         5         0.1187     -0.0215     -0.1158      0.1442      0.0641     -0.1427
         6         0.1622     -0.0872      0.0206     -0.1844      0.1850     -0.1646
         7        -0.0116      0.0198     -0.0174     -0.0819     -0.0167     -0.0013
         8         0.0678      0.0029     -0.0091      0.0840     -0.0304      0.0202
         9         0.1587     -0.0097     -0.0377     -0.2103     -0.1555     -0.1030
        10        -0.0082     -0.0067      0.0584      0.0716     -0.0592     -0.0104
 <0|del|b> * <b|rxdel|0> + <0|del|b> * <b|delr+rdel|0>
 Rotatory Strengths (R) in cgs (10**-40 erg-esu-cm/Gauss)
       state          XX          YY          ZZ    R(velocity)    E-M Angle
         1        12.2611    -25.4755      7.5953     -1.8730       92.68
         2        14.6718     -2.6169     -8.5431      1.1706       86.09
         3        15.9823     -5.2078     -4.6107      2.0546       81.41
         4       -45.1883     48.6873      3.0660      2.1884       84.84
         5        23.1320      0.6570     -3.0313      6.9192       59.94
         6        -2.4886    -52.7544    106.6811     17.1460       86.80
         7        -2.0594      4.7037     -0.4432      0.7337       87.45
         8         6.1405    -12.7310     -8.4876     -5.0260      105.59
         9        70.8425    -49.2376    -84.9640    -21.1197       97.43
        10         1.3176      3.7945      2.2730      2.4617       74.13
 1/2[<0|r|b>*<b|rxdel|0> + (<0|rxdel|b>*<b|r|0>)*]
 Rotatory Strengths (R) in cgs (10**-40 erg-esu-cm/Gauss)
       state          XX          YY          ZZ     R(length)
         1       -33.5383     41.2221    -10.6931     -1.0031
         2         2.5242    -12.4780     12.5286      0.8583
         3        -6.6199      1.0058     20.7986      5.0615
         4        17.0816    -13.8364      3.4520      2.2324
         5        -0.5938     16.1005     10.8904      8.7990
         6        62.6434     63.7908    -10.4673     38.6556
         7         6.8549     -4.1240      0.0169      0.9159
         8       -37.3323      9.3821     -2.4383    -10.1295
         9      -223.4451     73.3098     11.8443    -46.0970
        10         3.7268     -0.8758     13.7159      5.5223
  1/2[<0|del|b>*<b|r|0> + (<0|r|b>*<b|del|0>)*] (Au)
       state          X           Y           Z        Dip. S.   Osc.(frdel)
         1        -0.0172     -0.0012     -0.0017      0.0201      0.0134
         2        -0.0061     -0.0043     -0.0236      0.0340      0.0227
         3        -0.0019      0.0006     -0.0236      0.0249      0.0166
         4        -0.0039     -0.0271     -0.0651      0.0961      0.0641
         5        -0.0001     -0.0353     -0.0010      0.0364      0.0242
         6        -0.4453     -0.0003     -0.0011      0.4468      0.2978
         7        -0.0003     -0.0125     -0.0002      0.0130      0.0086
         8        -0.0046     -0.0049      0.0000      0.0095      0.0063
         9        -0.0166     -0.1135     -0.0031      0.1332      0.0888
        10        -0.0060     -0.0000     -0.0005      0.0064      0.0043

 Excitation energies and oscillator strengths:
 
 Excited State   1:      Singlet-A      5.0814 eV  244.00 nm  f=0.0213  <S**2>=0.000
      52 -> 54         0.20181
      52 -> 55         0.50052
      53 -> 54        -0.42519
 This state for optimization and/or second-order correction.
 Total Energy, E(TD-HF/TD-DFT) =  -557.140345854    
 Copying the excited state density for this state as the 1-particle RhoCI density.
 
 Excited State   2:      Singlet-A      5.1377 eV  241.32 nm  f=0.0179  <S**2>=0.000
      49 -> 55         0.15959
      52 -> 54         0.58202
      52 -> 55        -0.19935
      53 -> 55        -0.26631
 
 Excited State   3:      Singlet-A      5.2114 eV  237.91 nm  f=0.0171  <S**2>=0.000
      50 -> 54         0.28816
      50 -> 55         0.21291
      51 -> 54         0.40708
      51 -> 55         0.32015
      52 -> 54         0.14338
      53 -> 55         0.24617
 
 Excited State   4:      Singlet-A      5.2455 eV  236.36 nm  f=0.0815  <S**2>=0.000
      50 -> 54        -0.17511
      51 -> 55        -0.28432
      52 -> 54         0.23693
      53 -> 55         0.53409
      53 -> 56         0.10781
 
 Excited State   5:      Singlet-A      5.2725 eV  235.15 nm  f=0.0226  <S**2>=0.000
      50 -> 54         0.16126
      50 -> 55        -0.35097
      51 -> 54        -0.36642
      51 -> 55         0.37949
      53 -> 55         0.16882
 
 Excited State   6:      Singlet-A      5.4203 eV  228.74 nm  f=0.3795  <S**2>=0.000
      48 -> 55        -0.17716
      49 -> 54         0.14564
      51 -> 55        -0.10650
      52 -> 55         0.35507
      53 -> 54         0.48915
      53 -> 55        -0.12513
      53 -> 56         0.17051
 
 Excited State   7:      Singlet-A      5.5181 eV  224.69 nm  f=0.0078  <S**2>=0.000
      50 -> 55         0.54002
      51 -> 54        -0.34350
      51 -> 55         0.18187
      53 -> 56         0.18833
 
 Excited State   8:      Singlet-A      5.5305 eV  224.18 nm  f=0.0084  <S**2>=0.000
      50 -> 54         0.57252
      51 -> 54        -0.14489
      51 -> 55        -0.32928
      53 -> 56         0.14281
 
 Excited State   9:      Singlet-A      5.5365 eV  223.94 nm  f=0.1003  <S**2>=0.000
      50 -> 54        -0.10459
      50 -> 55        -0.12779
      51 -> 54         0.20077
      52 -> 55        -0.10065
      53 -> 54        -0.11909
      53 -> 56         0.60634
 
 Excited State  10:      Singlet-A      5.6931 eV  217.78 nm  f=0.0053  <S**2>=0.000
      49 -> 54         0.17317
      49 -> 55        -0.20150
      52 -> 55        -0.13862
      52 -> 56         0.62064
 SavETr:  write IOETrn=   770 NScale= 10 NData=  16 NLR=1 NState=   10 LETran=     190.

 **********************************************************************

            Population analysis using the SCF Density.

 **********************************************************************

 Orbital symmetries:
       Occupied  (A) (A) (A) (A) (A) (A) (A) (A) (A) (A) (A) (A)
                 (A) (A) (A) (A) (A) (A) (A) (A) (A) (A) (A) (A)
                 (A) (A) (A) (A) (A) (A) (A) (A) (A) (A) (A) (A)
                 (A) (A) (A) (A) (A) (A) (A) (A) (A) (A) (A) (A)
                 (A) (A) (A) (A) (A)
       Virtual   (A) (A) (A) (A) (A) (A) (A) (A) (A) (A) (A) (A)
                 (A) (A) (A) (A) (A) (A) (A) (A) (A) (A) (A) (A)
                 (A) (A) (A) (A) (A) (A) (A) (A) (A) (A) (A) (A)
                 (A) (A) (A) (A) (A) (A) (A) (A) (A) (A) (A) (A)
                 (A) (A) (A) (A) (A) (A) (A) (A) (A) (A) (A) (A)
                 (A) (A) (A) (A) (A) (A) (A) (A) (A) (A) (A) (A)
                 (A) (A) (A) (A) (A) (A) (A) (A) (A) (A) (A) (A)
                 (A) (A) (A) (A) (A) (A) (A) (A) (A) (A) (A) (A)
                 (A) (A) (A) (A) (A) (A) (A) (A) (A) (A) (A) (A)
                 (A) (A) (A) (A) (A) (A) (A) (A) (A) (A) (A) (A)
                 (A) (A) (A) (A) (A) (A) (A) (A) (A) (A) (A) (A)
                 (A) (A) (A) (A) (A) (A) (A) (A) (A) (A) (A) (A)
                 (A) (A) (A) (A) (A) (A) (A) (A) (A) (A) (A) (A)
                 (A) (A) (A) (A) (A) (A) (A) (A) (A) (A) (A) (A)
                 (A) (A) (A) (A) (A) (A) (A) (A) (A) (A) (A) (A)
                 (A) (A) (A) (A) (A) (A) (A) (A) (A) (A) (A) (A)
                 (A) (A) (A) (A) (A) (A) (A) (A) (A) (A) (A) (A)
                 (A) (A) (A) (A) (A) (A) (A) (A) (A) (A) (A) (A)
                 (A) (A) (A) (A) (A) (A) (A) (A) (A) (A) (A) (A)
                 (A) (A) (A) (A) (A) (A) (A) (A) (A) (A) (A) (A)
                 (A) (A) (A) (A) (A) (A) (A) (A) (A) (A) (A) (A)
                 (A) (A) (A) (A) (A) (A) (A) (A) (A) (A) (A) (A)
                 (A) (A) (A) (A) (A) (A) (A) (A) (A) (A) (A) (A)
                 (A) (A) (A) (A) (A) (A) (A) (A) (A) (A) (A) (A)
                 (A) (A) (A) (A) (A) (A) (A) (A) (A) (A) (A) (A)
                 (A) (A) (A) (A) (A) (A) (A) (A) (A) (A) (A) (A)
                 (A) (A) (A) (A) (A) (A) (A) (A) (A) (A) (A) (A)
                 (A) (A) (A) (A) (A) (A) (A) (A) (A) (A) (A) (A)
                 (A) (A) (A) (A) (A) (A) (A) (A) (A) (A) (A) (A)
                 (A) (A) (A) (A) (A) (A) (A) (A) (A) (A) (A) (A)
                 (A) (A) (A) (A) (A) (A) (A) (A) (A) (A) (A) (A)
                 (A) (A) (A) (A) (A) (A) (A) (A) (A) (A) (A) (A)
                 (A) (A) (A) (A) (A) (A) (A) (A) (A) (A) (A) (A)
                 (A) (A) (A) (A) (A) (A) (A) (A) (A) (A) (A) (A)
                 (A) (A) (A) (A) (A) (A) (A) (A) (A) (A) (A) (A)
                 (A) (A) (A) (A) (A) (A) (A) (A) (A) (A) (A) (A)
                 (A) (A) (A) (A) (A) (A) (A) (A) (A) (A) (A) (A)
                 (A) (A) (A) (A) (A) (A) (A) (A) (A) (A) (A) (A)
                 (A) (A) (A) (A) (A) (A) (A) (A) (A) (A) (A) (A)
                 (A) (A) (A) (A) (A) (A) (A) (A) (A) (A) (A) (A)
                 (A) (A) (A) (A) (A) (A) (A) (A) (A) (A) (A) (A)
                 (A) (A) (A) (A) (A) (A) (A)
 The electronic state is 1-A.
 Alpha  occ. eigenvalues --  -14.42937 -14.41615 -14.41471 -14.41357 -10.34092
 Alpha  occ. eigenvalues --  -10.32879 -10.32675 -10.32520 -10.30225 -10.29550
 Alpha  occ. eigenvalues --  -10.29523 -10.29509  -1.02272  -1.01034  -1.00846
 Alpha  occ. eigenvalues --   -1.00729  -0.86597  -0.85842  -0.85762  -0.85737
 Alpha  occ. eigenvalues --   -0.70929  -0.69756  -0.61183  -0.59158  -0.58850
 Alpha  occ. eigenvalues --   -0.58730  -0.57471  -0.53804  -0.53658  -0.53169
 Alpha  occ. eigenvalues --   -0.52983  -0.52967  -0.52921  -0.52844  -0.52721
 Alpha  occ. eigenvalues --   -0.50087  -0.48019  -0.47079  -0.44931  -0.43174
 Alpha  occ. eigenvalues --   -0.42923  -0.41913  -0.41685  -0.41475  -0.41085
 Alpha  occ. eigenvalues --   -0.40951  -0.40125  -0.31791  -0.30501  -0.29569
 Alpha  occ. eigenvalues --   -0.29148  -0.28521  -0.28366
 Alpha virt. eigenvalues --   -0.00038   0.00061   0.01391   0.04706   0.04783
 Alpha virt. eigenvalues --    0.05532   0.05701   0.05917   0.06065   0.06825
 Alpha virt. eigenvalues --    0.07429   0.07589   0.08493   0.09290   0.09641
 Alpha virt. eigenvalues --    0.14302   0.14710   0.15403   0.15445   0.15920
 Alpha virt. eigenvalues --    0.16243   0.16839   0.17821   0.18014   0.20104
 Alpha virt. eigenvalues --    0.20438   0.20565   0.20905   0.21451   0.21582
 Alpha virt. eigenvalues --    0.21819   0.26711   0.27261   0.28698   0.29617
 Alpha virt. eigenvalues --    0.30060   0.30384   0.30553   0.31109   0.31708
 Alpha virt. eigenvalues --    0.32140   0.33326   0.35461   0.35886   0.37091
 Alpha virt. eigenvalues --    0.37475   0.38326   0.39354   0.40060   0.41506
 Alpha virt. eigenvalues --    0.42636   0.44093   0.44949   0.45717   0.46286
 Alpha virt. eigenvalues --    0.47059   0.47589   0.47748   0.48181   0.48392
 Alpha virt. eigenvalues --    0.48782   0.48967   0.49354   0.49609   0.50187
 Alpha virt. eigenvalues --    0.51203   0.51438   0.51972   0.52806   0.53236
 Alpha virt. eigenvalues --    0.53882   0.54911   0.55348   0.55615   0.56491
 Alpha virt. eigenvalues --    0.57446   0.58041   0.58527   0.60557   0.60980
 Alpha virt. eigenvalues --    0.61586   0.63252   0.64259   0.65201   0.66306
 Alpha virt. eigenvalues --    0.66505   0.66672   0.67566   0.68327   0.68876
 Alpha virt. eigenvalues --    0.69732   0.70049   0.70665   0.72122   0.72591
 Alpha virt. eigenvalues --    0.72770   0.73595   0.73916   0.74549   0.74709
 Alpha virt. eigenvalues --    0.76647   0.77032   0.77944   0.79027   0.79885
 Alpha virt. eigenvalues --    0.82681   0.83310   0.85655   0.88732   0.89097
 Alpha virt. eigenvalues --    0.89872   0.89995   0.90511   0.90892   0.90953
 Alpha virt. eigenvalues --    0.91771   1.00869   1.01420   1.01926   1.02504
 Alpha virt. eigenvalues --    1.02725   1.02872   1.02991   1.03229   1.03791
 Alpha virt. eigenvalues --    1.04314   1.04959   1.05272   1.05548   1.05957
 Alpha virt. eigenvalues --    1.06092   1.06559   1.06788   1.07940   1.08115
 Alpha virt. eigenvalues --    1.10487   1.19541   1.20847   1.20960   1.21226
 Alpha virt. eigenvalues --    1.21577   1.21905   1.22070   1.22476   1.22705
 Alpha virt. eigenvalues --    1.23168   1.23688   1.24104   1.24580   1.25190
 Alpha virt. eigenvalues --    1.26433   1.27691   1.31785   1.32184   1.32421
 Alpha virt. eigenvalues --    1.32896   1.32956   1.34118   1.34610   1.35969
 Alpha virt. eigenvalues --    1.37272   1.37687   1.37925   1.38434   1.38602
 Alpha virt. eigenvalues --    1.38802   1.39597   1.41591   1.44857   1.45103
 Alpha virt. eigenvalues --    1.45682   1.45843   1.45868   1.45961   1.46498
 Alpha virt. eigenvalues --    1.47727   1.49186   1.50201   1.50575   1.51853
 Alpha virt. eigenvalues --    1.76442   1.77355   1.77823   1.78505   1.79186
 Alpha virt. eigenvalues --    1.79549   1.80014   1.81426   1.89608   1.90929
 Alpha virt. eigenvalues --    1.93193   1.93464   2.02407   2.05723   2.06758
 Alpha virt. eigenvalues --    2.09137   2.11092   2.12029   2.13192   2.13366
 Alpha virt. eigenvalues --    2.16049   2.18581   2.19331   2.20321   2.21445
 Alpha virt. eigenvalues --    2.22032   2.23516   2.25472   2.31007   2.31385
 Alpha virt. eigenvalues --    2.31452   2.31826   2.32174   2.32361   2.32692
 Alpha virt. eigenvalues --    2.34715   2.44813   2.45494   2.46346   2.47299
 Alpha virt. eigenvalues --    2.61013   2.61387   2.61951   2.62833   2.63332
 Alpha virt. eigenvalues --    2.63521   2.63759   2.64088   2.66005   2.66412
 Alpha virt. eigenvalues --    2.66559   2.66854   2.68827   2.69521   2.69640
 Alpha virt. eigenvalues --    2.70210   2.71055   2.71085   2.71498   2.72069
 Alpha virt. eigenvalues --    2.77270   2.77753   2.77949   2.78206   2.78834
 Alpha virt. eigenvalues --    2.79366   2.79464   2.80989   2.85780   2.86253
 Alpha virt. eigenvalues --    2.86294   2.86867   2.88057   2.89104   2.89765
 Alpha virt. eigenvalues --    2.89916   2.90164   2.90200   2.90549   2.90840
 Alpha virt. eigenvalues --    2.91312   2.91480   2.92131   2.92855   2.93550
 Alpha virt. eigenvalues --    2.94259   2.94567   2.94808   2.95783   2.96755
 Alpha virt. eigenvalues --    2.97148   3.00728   3.02321   3.02549   3.02860
 Alpha virt. eigenvalues --    3.03340   3.03613   3.03712   3.04315   3.05341
 Alpha virt. eigenvalues --    3.09808   3.10369   3.10599   3.10757   3.10977
 Alpha virt. eigenvalues --    3.11131   3.11246   3.12698   3.19052   3.19444
 Alpha virt. eigenvalues --    3.19823   3.20211   3.20633   3.20834   3.21278
 Alpha virt. eigenvalues --    3.21893   3.27423   3.27840   3.28065   3.28589
 Alpha virt. eigenvalues --    3.33504   3.33849   3.33885   3.34162   3.35747
 Alpha virt. eigenvalues --    3.36284   3.36503   3.36938   3.36989   3.37315
 Alpha virt. eigenvalues --    3.37923   3.38373   3.42979   3.43077   3.43662
 Alpha virt. eigenvalues --    3.44336   3.45693   3.45880   3.46040   3.46152
 Alpha virt. eigenvalues --    3.46346   3.46403   3.46452   3.46715   3.67604
 Alpha virt. eigenvalues --    3.68006   3.68114   3.68199   3.68353   3.68569
 Alpha virt. eigenvalues --    3.68953   3.68984   3.71073   3.71446   3.71934
 Alpha virt. eigenvalues --    3.72814   3.82533   3.82768   3.82842   3.83009
 Alpha virt. eigenvalues --    3.83382   3.83960   3.84029   3.84731   3.90643
 Alpha virt. eigenvalues --    3.91483   3.92062   3.92692   3.93450   3.94451
 Alpha virt. eigenvalues --    3.94562   3.94594   3.94658   3.94845   3.95138
 Alpha virt. eigenvalues --    3.95482   3.95865   3.96142   3.96369   3.97013
 Alpha virt. eigenvalues --    4.00205   4.00771   4.00880   4.01027   4.01270
 Alpha virt. eigenvalues --    4.01359   4.01731   4.01961   4.08212   4.08366
 Alpha virt. eigenvalues --    4.08673   4.08859   4.09111   4.09368   4.09462
 Alpha virt. eigenvalues --    4.09474   4.09587   4.09846   4.10319   4.10640
 Alpha virt. eigenvalues --    4.28479   4.28509   4.28631   4.29029   4.39241
 Alpha virt. eigenvalues --    4.39563   4.39693   4.39856   4.40131   4.40244
 Alpha virt. eigenvalues --    4.40311   4.41370   4.44699   4.44792   4.44937
 Alpha virt. eigenvalues --    4.45043   4.57644   4.57766   4.58092   4.58463
 Alpha virt. eigenvalues --    4.58846   4.59168   4.59596   4.60057   4.63600
 Alpha virt. eigenvalues --    4.64459   4.64711   4.64936   4.65001   4.65392
 Alpha virt. eigenvalues --    4.65820   4.66737   4.81726   4.82402   4.82734
 Alpha virt. eigenvalues --    4.82816   4.83122   4.83288   4.83420   4.83506
 Alpha virt. eigenvalues --    4.83874   4.85015   4.85201   4.87653   5.10772
 Alpha virt. eigenvalues --    5.11105   5.11323   5.11740   5.12179   5.12666
 Alpha virt. eigenvalues --    5.12887   5.13707   5.14466   5.15427   5.15645
 Alpha virt. eigenvalues --    5.15742   5.15849   5.17097   5.18106   5.20051
 Alpha virt. eigenvalues --    5.23054   5.23485   5.24202   5.24515   5.24845
 Alpha virt. eigenvalues --    5.24903   5.25740   5.25961   5.26039   5.26220
 Alpha virt. eigenvalues --    5.26418   5.26628   5.27053   5.27404   5.27695
 Alpha virt. eigenvalues --    5.27822   5.28731   5.29083   5.29301   5.30810
 Alpha virt. eigenvalues --    5.69544   5.69648   5.70324   5.72171   5.81593
 Alpha virt. eigenvalues --    5.82090   5.82236   5.82305   5.82379   5.82595
 Alpha virt. eigenvalues --    5.83338   5.87640   6.04786   6.05108   6.05548
 Alpha virt. eigenvalues --    6.06910   6.11958   6.12047   6.12182   6.12415
 Alpha virt. eigenvalues --    6.12679   6.12877   6.13270   6.13700   7.94710
 Alpha virt. eigenvalues --    8.05440   8.08937   8.41101   9.70795  10.86718
 Alpha virt. eigenvalues --   11.35429  13.41953  13.44230  13.45233  13.47208
 Alpha virt. eigenvalues --   14.94575  15.01785  15.06136  15.39719
          Condensed to atoms (all electrons):
               1          2          3          4          5          6
     1  Pb   3.029537   0.087447   0.076448  -0.006832   0.000050  -0.000030
     2  I    0.087447   7.560325  -0.008260   0.000014   0.000001   0.000000
     3  I    0.076448  -0.008260   7.559530  -0.014697   0.000186   0.000134
     4  C   -0.006832   0.000014  -0.014697   4.818217   0.398790   0.400442
     5  H    0.000050   0.000001   0.000186   0.398790   0.529234  -0.020943
     6  H   -0.000030   0.000000   0.000134   0.400442  -0.020943   0.517946
     7  H   -0.000660   0.000000   0.023855   0.381569  -0.021753  -0.019749
     8  C   -0.049561   0.000232   0.005950   0.294969  -0.032172  -0.029662
     9  N   -0.000770   0.000178  -0.006659  -0.048449  -0.001004  -0.000185
    10  C   -0.004796  -0.013174   0.000007   0.000000   0.000000   0.000000
    11  H    0.000062   0.000270   0.000000   0.000000  -0.000000   0.000000
    12  H   -0.000062   0.000264   0.000000  -0.000000   0.000000  -0.000000
    13  H   -0.000657   0.023428   0.000002  -0.000000  -0.000000  -0.000000
    14  C   -0.048106   0.003365   0.000202   0.000004   0.000001  -0.000000
    15  N   -0.007902  -0.006655   0.000245   0.000013   0.000000  -0.000000
    16  C   -0.002293  -0.000006  -0.012672  -0.000000  -0.000000   0.000000
    17  H    0.000131   0.000003   0.000245   0.000000  -0.000000   0.000000
    18  H    0.000109   0.000099   0.000277   0.000000   0.000000  -0.000000
    19  H   -0.000630  -0.000054   0.021491   0.000001  -0.000000  -0.000000
    20  C   -0.020662  -0.001738   0.003169   0.000002  -0.000000   0.000000
    21  N   -0.001247  -0.002610  -0.006346  -0.000000  -0.000000   0.000000
    22  C   -0.003023   0.000048   0.000179   0.000049  -0.000098  -0.000005
    23  H    0.000030   0.000158  -0.000005   0.000009   0.000013   0.000000
    24  H   -0.000027  -0.000005  -0.000002  -0.000026  -0.000077  -0.000000
    25  H    0.000019  -0.000006   0.000206  -0.000072   0.000065  -0.000005
    26  C   -0.041945   0.000306   0.000851   0.000975   0.000189   0.000036
    27  N   -0.051813  -0.006478  -0.006525   0.001315   0.000049   0.000051
               7          8          9         10         11         12
     1  Pb  -0.000660  -0.049561  -0.000770  -0.004796   0.000062  -0.000062
     2  I    0.000000   0.000232   0.000178  -0.013174   0.000270   0.000264
     3  I    0.023855   0.005950  -0.006659   0.000007   0.000000   0.000000
     4  C    0.381569   0.294969  -0.048449   0.000000   0.000000  -0.000000
     5  H   -0.021753  -0.032172  -0.001004   0.000000  -0.000000   0.000000
     6  H   -0.019749  -0.029662  -0.000185   0.000000   0.000000  -0.000000
     7  H    0.550381  -0.034464  -0.002720  -0.000000  -0.000000  -0.000000
     8  C   -0.034464   4.841658   0.991313   0.000002   0.000000  -0.000000
     9  N   -0.002720   0.991313   6.240909  -0.000000  -0.000000  -0.000000
    10  C   -0.000000   0.000002  -0.000000   4.789973   0.400826   0.398573
    11  H   -0.000000   0.000000  -0.000000   0.400826   0.529267  -0.021941
    12  H   -0.000000  -0.000000  -0.000000   0.398573  -0.021941   0.528254
    13  H   -0.000000  -0.000001  -0.000000   0.384998  -0.021174  -0.020527
    14  C   -0.000001   0.000166   0.000087   0.306144  -0.032502  -0.030668
    15  N   -0.000001   0.000536   0.000766  -0.042813  -0.000872  -0.000601
    16  C    0.000001   0.000005   0.000001   0.000000  -0.000000   0.000000
    17  H   -0.000000   0.000000   0.000000   0.000000  -0.000000   0.000000
    18  H   -0.000000  -0.000000  -0.000000   0.000000   0.000000  -0.000000
    19  H    0.000000  -0.000001   0.000000  -0.000000  -0.000000  -0.000000
    20  C   -0.000000   0.000015   0.000016   0.000000  -0.000000   0.000000
    21  N    0.000001   0.000014   0.000031   0.000001  -0.000000   0.000000
    22  C   -0.000045   0.000135  -0.000019   0.000012  -0.000000  -0.000000
    23  H   -0.000002  -0.000004  -0.000001   0.000001   0.000001  -0.000000
    24  H    0.000004   0.000051   0.000012  -0.000003  -0.000002   0.000000
    25  H    0.000049   0.000004  -0.000001   0.000000   0.000000   0.000000
    26  C    0.000230   0.000223  -0.000582   0.000210   0.000000   0.000003
    27  N    0.000026   0.001393  -0.003439   0.000097   0.000020   0.000005
              13         14         15         16         17         18
     1  Pb  -0.000657  -0.048106  -0.007902  -0.002293   0.000131   0.000109
     2  I    0.023428   0.003365  -0.006655  -0.000006   0.000003   0.000099
     3  I    0.000002   0.000202   0.000245  -0.012672   0.000245   0.000277
     4  C   -0.000000   0.000004   0.000013  -0.000000   0.000000   0.000000
     5  H   -0.000000   0.000001   0.000000  -0.000000  -0.000000   0.000000
     6  H   -0.000000  -0.000000  -0.000000   0.000000   0.000000  -0.000000
     7  H   -0.000000  -0.000001  -0.000001   0.000001  -0.000000  -0.000000
     8  C   -0.000001   0.000166   0.000536   0.000005   0.000000  -0.000000
     9  N   -0.000000   0.000087   0.000766   0.000001   0.000000  -0.000000
    10  C    0.384998   0.306144  -0.042813   0.000000   0.000000   0.000000
    11  H   -0.021174  -0.032502  -0.000872  -0.000000  -0.000000   0.000000
    12  H   -0.020527  -0.030668  -0.000601   0.000000   0.000000  -0.000000
    13  H    0.551493  -0.035992  -0.002916   0.000000  -0.000000  -0.000000
    14  C   -0.035992   4.832353   0.975769   0.000000   0.000000   0.000000
    15  N   -0.002916   0.975769   6.263971   0.000000   0.000000   0.000000
    16  C    0.000000   0.000000   0.000000   4.768658   0.398278   0.399388
    17  H   -0.000000   0.000000   0.000000   0.398278   0.527952  -0.021529
    18  H   -0.000000   0.000000   0.000000   0.399388  -0.021529   0.527263
    19  H    0.000000  -0.000000  -0.000000   0.386828  -0.020953  -0.020790
    20  C    0.000001   0.000020   0.000013   0.313395  -0.030493  -0.031344
    21  N    0.000001   0.000050   0.000039  -0.031381  -0.000397  -0.000783
    22  C   -0.000003   0.000068   0.000023   0.000000  -0.000000  -0.000000
    23  H    0.000001  -0.000007  -0.000001  -0.000000  -0.000000  -0.000000
    24  H   -0.000000   0.000010   0.000015  -0.000000  -0.000000   0.000000
    25  H    0.000000   0.000001  -0.000000   0.000000  -0.000000  -0.000000
    26  C    0.000034   0.001293   0.000894   0.000000  -0.000000  -0.000000
    27  N   -0.000002   0.002018  -0.003226   0.000001   0.000000   0.000000
              19         20         21         22         23         24
     1  Pb  -0.000630  -0.020662  -0.001247  -0.003023   0.000030  -0.000027
     2  I   -0.000054  -0.001738  -0.002610   0.000048   0.000158  -0.000005
     3  I    0.021491   0.003169  -0.006346   0.000179  -0.000005  -0.000002
     4  C    0.000001   0.000002  -0.000000   0.000049   0.000009  -0.000026
     5  H   -0.000000  -0.000000  -0.000000  -0.000098   0.000013  -0.000077
     6  H   -0.000000   0.000000   0.000000  -0.000005   0.000000  -0.000000
     7  H    0.000000  -0.000000   0.000001  -0.000045  -0.000002   0.000004
     8  C   -0.000001   0.000015   0.000014   0.000135  -0.000004   0.000051
     9  N    0.000000   0.000016   0.000031  -0.000019  -0.000001   0.000012
    10  C   -0.000000   0.000000   0.000001   0.000012   0.000001  -0.000003
    11  H   -0.000000  -0.000000  -0.000000  -0.000000   0.000001  -0.000002
    12  H   -0.000000   0.000000   0.000000  -0.000000  -0.000000   0.000000
    13  H    0.000000   0.000001   0.000001  -0.000003   0.000001  -0.000000
    14  C   -0.000000   0.000020   0.000050   0.000068  -0.000007   0.000010
    15  N   -0.000000   0.000013   0.000039   0.000023  -0.000001   0.000015
    16  C    0.386828   0.313395  -0.031381   0.000000  -0.000000  -0.000000
    17  H   -0.020953  -0.030493  -0.000397  -0.000000  -0.000000  -0.000000
    18  H   -0.020790  -0.031344  -0.000783  -0.000000  -0.000000   0.000000
    19  H    0.549588  -0.036310  -0.002764  -0.000000   0.000000   0.000000
    20  C   -0.036310   4.806944   0.972480   0.000000   0.000000  -0.000000
    21  N   -0.002764   0.972480   6.253378   0.000000   0.000000  -0.000000
    22  C   -0.000000   0.000000   0.000000   4.737014   0.399294   0.403769
    23  H    0.000000   0.000000   0.000000   0.399294   0.522420  -0.020147
    24  H    0.000000  -0.000000  -0.000000   0.403769  -0.020147   0.525453
    25  H   -0.000000  -0.000000   0.000000   0.399342  -0.020562  -0.020694
    26  C    0.000000   0.000003   0.000011   0.328559  -0.031722  -0.036454
    27  N    0.000001   0.000028   0.000082  -0.031988  -0.001284  -0.001952
              25         26         27
     1  Pb   0.000019  -0.041945  -0.051813
     2  I   -0.000006   0.000306  -0.006478
     3  I    0.000206   0.000851  -0.006525
     4  C   -0.000072   0.000975   0.001315
     5  H    0.000065   0.000189   0.000049
     6  H   -0.000005   0.000036   0.000051
     7  H    0.000049   0.000230   0.000026
     8  C    0.000004   0.000223   0.001393
     9  N   -0.000001  -0.000582  -0.003439
    10  C    0.000000   0.000210   0.000097
    11  H    0.000000   0.000000   0.000020
    12  H    0.000000   0.000003   0.000005
    13  H    0.000000   0.000034  -0.000002
    14  C    0.000001   0.001293   0.002018
    15  N   -0.000000   0.000894  -0.003226
    16  C    0.000000   0.000000   0.000001
    17  H   -0.000000  -0.000000   0.000000
    18  H   -0.000000  -0.000000   0.000000
    19  H   -0.000000   0.000000   0.000001
    20  C   -0.000000   0.000003   0.000028
    21  N    0.000000   0.000011   0.000082
    22  C    0.399342   0.328559  -0.031988
    23  H   -0.020562  -0.031722  -0.001284
    24  H   -0.020694  -0.036454  -0.001952
    25  H    0.527599  -0.033060  -0.001870
    26  C   -0.033060   4.853470   0.888508
    27  N   -0.001870   0.888508   6.392657
 Mulliken charges:
               1
     1  Pb   1.047180
     2  I   -0.637153
     3  I   -0.637811
     4  C   -0.226295
     5  H    0.147470
     6  H    0.151969
     7  H    0.123278
     8  C    0.009199
     9  N   -0.169485
    10  C   -0.220058
    11  H    0.146044
    12  H    0.146701
    13  H    0.121313
    14  C    0.025729
    15  N   -0.177295
    16  C   -0.220202
    17  H    0.146763
    18  H    0.147310
    19  H    0.123592
    20  C    0.024464
    21  N   -0.180560
    22  C   -0.233312
    23  H    0.151807
    24  H    0.150077
    25  H    0.148984
    26  C    0.067968
    27  N   -0.177675
 Sum of Mulliken charges =  -0.00000
 Mulliken charges with hydrogens summed into heavy atoms:
               1
     1  Pb   1.047180
     2  I   -0.637153
     3  I   -0.637811
     4  C    0.196422
     8  C    0.009199
     9  N   -0.169485
    10  C    0.194000
    14  C    0.025729
    15  N   -0.177295
    16  C    0.197463
    20  C    0.024464
    21  N   -0.180560
    22  C    0.217556
    26  C    0.067968
    27  N   -0.177675
 Electronic spatial extent (au):  <R**2>=           5770.8563
 Charge=             -0.0000 electrons
 Dipole moment (field-independent basis, Debye):
    X=              1.0928    Y=             11.0981    Z=             -2.4816  Tot=             11.4245
 Quadrupole moment (field-independent basis, Debye-Ang):
   XX=           -101.0933   YY=            -66.8849   ZZ=           -141.0819
   XY=             19.7649   XZ=              4.7295   YZ=             27.8906
 Traceless Quadrupole moment (field-independent basis, Debye-Ang):
   XX=              1.9267   YY=             36.1351   ZZ=            -38.0619
   XY=             19.7649   XZ=              4.7295   YZ=             27.8906
 Octapole moment (field-independent basis, Debye-Ang**2):
  XXX=            121.3242  YYY=             42.5039  ZZZ=             60.5108  XYY=           -104.2908
  XXY=             31.7947  XXZ=            -73.2791  XZZ=              3.5924  YZZ=             -2.6579
  YYZ=             55.8433  XYZ=             12.9197
 Hexadecapole moment (field-independent basis, Debye-Ang**3):
 XXXX=          -3131.4587 YYYY=          -2529.8282 ZZZZ=          -1590.2240 XXXY=             29.6414
 XXXZ=           -109.8786 YYYX=             94.1877 YYYZ=            253.5839 ZZZX=              3.4238
 ZZZY=             32.8777 XXYY=           -930.6670 XXZZ=           -901.4937 YYZZ=           -788.1074
 XXYZ=             18.4719 YYXZ=            149.3824 ZZXY=             16.0620
 N-N= 7.091105076294D+02 E-N=-2.701915988700D+03  KE= 5.343583501185D+02
 Unable to Open any file for archive entry.
 1\1\GINC-MPCL125\SP\RCAM-B3LYP TD-FC\Gen\C8H12I2N4Pb1\EDBA4025\11-Nov-
 2020\0\\# cam-b3lyp/gen pseudo=read TD=NStates=10 Geom=Check Guess=Rea
 d empiricaldispersion=gd3bj SCRF=(Solvent=CH3CN)\\PbI2_ACN\\0,1\Pb,0,0
 .7859315455,-0.9896448953,1.2195736658\I,0,-2.2816456485,-0.738674328,
 1.4724536336\I,0,0.8400519177,-1.1678327354,-1.8910119432\C,0,4.141814
 227,1.1933479845,-1.0309473717\H,0,4.0680410758,2.2730348781,-0.797577
 4472\H,0,5.1657193683,0.9652933441,-1.3841338768\H,0,3.4132107905,0.93
 75411756,-1.8275812661\C,0,3.8267150674,0.4064680929,0.1466935616\N,0,
 3.5390847854,-0.2370218562,1.0880186327\C,0,-1.1658502224,0.9869909468
 ,5.048958912\H,0,-1.1185598961,2.0817347251,5.2056645313\H,0,-1.261635
 5366,0.4809169683,6.0286997317\H,0,-2.0471565211,0.7425928239,4.420533
 1047\C,0,0.0252510586,0.526669796,4.360678155\N,0,0.9747428216,0.14541
 23644,3.7815921081\C,0,0.2489915087,-5.1622430655,-0.928092901\H,0,1.0
 439774195,-5.929811674,-0.9909012122\H,0,-0.7411420148,-5.656130021,-0
 .9576746705\H,0,0.3396012806,-4.4668307095,-1.787916457\C,0,0.38913644
 99,-4.3943286511,0.2941509341\N,0,0.5038517586,-3.751738344,1.27172169
 54\C,0,0.76930812,4.1085809843,0.3344875018\H,0,-0.2379924876,4.530369
 7179,0.5157752336\H,0,1.4990810249,4.6082266632,1.0002239928\H,0,1.054
 967536,4.2884084803,-0.7199412209\C,0,0.7588826497,2.6836643394,0.6003
 014294\N,0,0.7499219213,1.5317729953,0.8105815429\\Version=ES64L-G16Re
 vC.01\State=1-A\HF=-557.3270846\RMSD=7.403e-09\PG=C01 [X(C8H12I2N4Pb1)
 ]\\@
 The archive entry for this job was punched.


 FAULTILY FAULTLESS, ICILY REGULAR, SPLENDIDLY NULL...
           MAUDE BY TENNYSON
 Job cpu time:       0 days  1 hours 43 minutes 59.1 seconds.
 Elapsed time:       0 days  0 hours 26 minutes  0.6 seconds.
 File lengths (MBytes):  RWF=   1720 Int=      0 D2E=      0 Chk=    536 Scr=      1
 Normal termination of Gaussian 16 at Wed Nov 11 19:27:35 2020.
