 Entering Gaussian System, Link 0=g16
 Input=02-PbI2_dmf_22800332.com
 Output=02-PbI2_dmf_22800332.log
 Initial command:
 /cm/shared/uniol/software/gaussian/g16.c01/g16/l1.exe "/scratch/22800332_edba4025/Gau-7912.inp" -scrdir="/scratch/22800332_edba4025/"
 Entering Link 1 = /cm/shared/uniol/software/gaussian/g16.c01/g16/l1.exe PID=      7913.
  
 Copyright (c) 1988-2019, Gaussian, Inc.  All Rights Reserved.
  
 This is part of the Gaussian(R) 16 program.  It is based on
 the Gaussian(R) 09 system (copyright 2009, Gaussian, Inc.),
 the Gaussian(R) 03 system (copyright 2003, Gaussian, Inc.),
 the Gaussian(R) 98 system (copyright 1998, Gaussian, Inc.),
 the Gaussian(R) 94 system (copyright 1995, Gaussian, Inc.),
 the Gaussian 92(TM) system (copyright 1992, Gaussian, Inc.),
 the Gaussian 90(TM) system (copyright 1990, Gaussian, Inc.),
 the Gaussian 88(TM) system (copyright 1988, Gaussian, Inc.),
 the Gaussian 86(TM) system (copyright 1986, Carnegie Mellon
 University), and the Gaussian 82(TM) system (copyright 1983,
 Carnegie Mellon University). Gaussian is a federally registered
 trademark of Gaussian, Inc.
  
 This software contains proprietary and confidential information,
 including trade secrets, belonging to Gaussian, Inc.
  
 This software is provided under written license and may be
 used, copied, transmitted, or stored only in accord with that
 written license.
  
 The following legend is applicable only to US Government
 contracts under FAR:
  
                    RESTRICTED RIGHTS LEGEND
  
 Use, reproduction and disclosure by the US Government is
 subject to restrictions as set forth in subparagraphs (a)
 and (c) of the Commercial Computer Software - Restricted
 Rights clause in FAR 52.227-19.
  
 Gaussian, Inc.
 340 Quinnipiac St., Bldg. 40, Wallingford CT 06492
  
  
 ---------------------------------------------------------------
 Warning -- This program may not be used in any manner that
 competes with the business of Gaussian, Inc. or will provide
 assistance to any competitor of Gaussian, Inc.  The licensee
 of this program is prohibited from giving any competitor of
 Gaussian, Inc. access to this program.  By using this program,
 the user acknowledges that Gaussian, Inc. is engaged in the
 business of creating and licensing software in the field of
 computational chemistry and represents and warrants to the
 licensee that it is not a competitor of Gaussian, Inc. and that
 it will not use this program in any manner prohibited above.
 ---------------------------------------------------------------
  

 Cite this work as:
 Gaussian 16, Revision C.01,
 M. J. Frisch, G. W. Trucks, H. B. Schlegel, G. E. Scuseria, 
 M. A. Robb, J. R. Cheeseman, G. Scalmani, V. Barone, 
 G. A. Petersson, H. Nakatsuji, X. Li, M. Caricato, A. V. Marenich, 
 J. Bloino, B. G. Janesko, R. Gomperts, B. Mennucci, H. P. Hratchian, 
 J. V. Ortiz, A. F. Izmaylov, J. L. Sonnenberg, D. Williams-Young, 
 F. Ding, F. Lipparini, F. Egidi, J. Goings, B. Peng, A. Petrone, 
 T. Henderson, D. Ranasinghe, V. G. Zakrzewski, J. Gao, N. Rega, 
 G. Zheng, W. Liang, M. Hada, M. Ehara, K. Toyota, R. Fukuda, 
 J. Hasegawa, M. Ishida, T. Nakajima, Y. Honda, O. Kitao, H. Nakai, 
 T. Vreven, K. Throssell, J. A. Montgomery, Jr., J. E. Peralta, 
 F. Ogliaro, M. J. Bearpark, J. J. Heyd, E. N. Brothers, K. N. Kudin, 
 V. N. Staroverov, T. A. Keith, R. Kobayashi, J. Normand, 
 K. Raghavachari, A. P. Rendell, J. C. Burant, S. S. Iyengar, 
 J. Tomasi, M. Cossi, J. M. Millam, M. Klene, C. Adamo, R. Cammi, 
 J. W. Ochterski, R. L. Martin, K. Morokuma, O. Farkas, 
 J. B. Foresman, and D. J. Fox, Gaussian, Inc., Wallingford CT, 2019.
 
 ******************************************
 Gaussian 16:  ES64L-G16RevC.01  3-Jul-2019
                11-Nov-2020 
 ******************************************
 %oldChk=01-PbI2_dmf
 %chk=02-PbI2_dmf
 %mem=16GB
 %NProcShared=4
 Will use up to    4 processors via shared memory.
 Copying data from "01-PbI2_dmf.chk" to current chk file "02-PbI2_dmf.chk"
 IOpt=  2 FromEx=T IUOpen= 4 IOptOp= 5 NList=   0 IFRang= 0 IUIn= 4 IUOut= 2.
 ----------------------------------------------------------------------
 # cam-b3lyp/gen pseudo=read TD=NStates=10 Geom=Check Guess=Read empiri
 caldispersion=gd3bj SCRF=(Solvent=n,n-DiMethylFormamide)
 ----------------------------------------------------------------------
 1/29=2,38=1,172=1/1;
 2/12=2,40=1/2;
 3/5=7,11=9,14=-4,16=1,17=8,25=1,30=1,70=2201,72=148,74=-40,116=-2,124=41/1,2,3,8;
 4/5=1/1;
 5/5=2,38=6,53=148/2;
 8/6=1,10=1,108=10/1;
 9/41=10,42=1,70=2/14;
 6/7=2,8=2,9=2,10=2/1;
 99/5=1,9=1/99;
 --------
 PbI2_dmf
 --------
 Structure from the checkpoint file:  "02-PbI2_dmf.chk"
 Charge =  0 Multiplicity = 1
 Redundant internal coordinates found in file.  (old form).
 Pb,0,-0.4733669677,-0.4709054018,-0.3187417025
 I,0,0.8033420274,-0.3130699754,2.6433460392
 I,0,2.1423147026,0.5234829078,-2.0384480518
 O,0,-1.8286698715,-0.3802236571,-2.4447320148
 O,0,-2.7636111152,-0.6777743511,0.5204641007
 O,0,-0.4812903562,-3.1083079968,-0.2989713739
 O,0,-1.0976296633,1.8823020928,-0.0647544824
 C,0,-3.8295242399,-0.5056577711,-0.1258903786
 H,0,-4.4240227889,0.433767084,-0.0269413892
 N,0,-4.3825512086,-1.3968160081,-0.9646701189
 C,0,-3.7405691275,-2.6719292621,-1.2562543194
 C,0,-5.6030393883,-1.0829423821,-1.6918492603
 H,0,-5.988879651,-0.0997213901,-1.3660024026
 H,0,-6.3736361121,-1.856742593,-1.5008102667
 H,0,-5.4001332816,-1.0489546859,-2.7822049498
 H,0,-4.4481545032,-3.500331032,-1.0501935061
 H,0,-3.4482935902,-2.7036876949,-2.3249365199
 H,0,-2.8342781681,-2.7797103564,-0.6348432783
 C,0,-1.4790781427,-0.1627534733,-3.6329050254
 H,0,-1.3489575933,-0.9960323401,-4.3635672254
 N,0,-1.2491442767,1.0495281016,-4.1672822799
 C,0,-1.3546028988,2.2609857007,-3.3666143232
 C,0,-0.8123376258,1.1914823016,-5.5478010871
 H,0,-0.7922939061,0.1995513175,-6.0351056064
 H,0,0.2051345781,1.632280025,-5.584027621
 H,0,-1.5053301193,1.8553336061,-6.1032215063
 H,0,-0.3559038477,2.7334170128,-3.2644762602
 H,0,-2.0454013817,2.9763628111,-3.8567302064
 H,0,-1.7270187084,1.9932988,-2.3634479188
 C,0,-0.2144619868,2.7419985043,0.2084640173
 H,0,0.7996123306,2.4551040243,0.5657247347
 N,0,-0.4047661181,4.0650038063,0.1051669326
 C,0,-1.6770768056,4.6113109901,-0.35048481
 C,0,0.6616589435,5.0052157136,0.4205018854
 H,0,1.5634218177,4.4501721672,0.7363666925
 H,0,0.3459528518,5.6835217591,1.238742459
 H,0,0.9065388711,5.6170944699,-0.4712808074
 H,0,-2.0539036915,5.3467987337,0.387670531
 H,0,-1.5460496858,5.1225277569,-1.3261729433
 H,0,-2.3982987776,3.7833591162,-0.4565976602
 C,0,0.0255554689,-3.832390613,0.5920646799
 H,0,-0.6035886406,-4.4839501751,1.2450985133
 N,0,1.3419586871,-3.9336274708,0.8620060004
 C,0,2.3278851238,-3.1594390229,0.1215721914
 C,0,1.8207330525,-4.7360994296,1.9770182158
 H,0,0.9724082449,-5.2763856059,2.4359757357
 H,0,2.2901472918,-4.0857557011,2.7441000517
 H,0,2.5732881293,-5.4715278445,1.6273784185
 H,0,2.7415233969,-2.352299613,0.7614181509
 H,0,3.1524327871,-3.8226641467,-0.2074526756
 H,0,1.8423159149,-2.7041988288,-0.7592674085
 Recover connectivity data from disk.
                           ----------------------------
                           !    Current Parameters    !
                           ! (Angstroms and Degrees)  !
 --------------------------                            --------------------------
 ! Name  Definition              Value                                          !
 --------------------------------------------------------------------------------
 ! R1    R(1,2)                  3.2294                                         !
 ! R2    R(1,3)                  3.2845                                         !
 ! R3    R(1,6)                  2.6375                                         !
 ! R4    R(1,7)                  2.4478                                         !
 ! R5    R(4,19)                 1.2575                                         !
 ! R6    R(5,8)                  1.2584                                         !
 ! R7    R(6,17)                 3.6154                                         !
 ! R8    R(6,41)                 1.255                                          !
 ! R9    R(7,27)                 3.393                                          !
 ! R10   R(7,30)                 1.2624                                         !
 ! R11   R(8,9)                  1.1161                                         !
 ! R12   R(8,10)                 1.343                                          !
 ! R13   R(10,11)                1.4571                                         !
 ! R14   R(10,12)                1.455                                          !
 ! R15   R(11,16)                1.1088                                         !
 ! R16   R(11,17)                1.1084                                         !
 ! R17   R(11,18)                1.1041                                         !
 ! R18   R(12,13)                1.1053                                         !
 ! R19   R(12,14)                1.1086                                         !
 ! R20   R(12,15)                1.1096                                         !
 ! R21   R(17,42)                4.8997                                         !
 ! R22   R(19,20)                1.1159                                         !
 ! R23   R(19,21)                1.3446                                         !
 ! R24   R(21,22)                1.456                                          !
 ! R25   R(21,23)                1.4549                                         !
 ! R26   R(22,27)                1.1095                                         !
 ! R27   R(22,28)                1.1087                                         !
 ! R28   R(22,29)                1.103                                          !
 ! R29   R(23,24)                1.1053                                         !
 ! R30   R(23,25)                1.1094                                         !
 ! R31   R(23,26)                1.1088                                         !
 ! R32   R(30,31)                1.1128                                         !
 ! R33   R(30,32)                1.3406                                         !
 ! R34   R(32,33)                1.4577                                         !
 ! R35   R(32,34)                1.4563                                         !
 ! R36   R(33,38)                1.1081                                         !
 ! R37   R(33,39)                1.1093                                         !
 ! R38   R(33,40)                1.1031                                         !
 ! R39   R(34,35)                1.105                                          !
 ! R40   R(34,36)                1.1087                                         !
 ! R41   R(34,37)                1.1089                                         !
 ! R42   R(41,42)                1.1166                                         !
 ! R43   R(41,43)                1.3476                                         !
 ! R44   R(43,44)                1.4559                                         !
 ! R45   R(43,45)                1.4548                                         !
 ! R46   R(44,49)                1.1099                                         !
 ! R47   R(44,50)                1.1082                                         !
 ! R48   R(44,51)                1.104                                          !
 ! R49   R(45,46)                1.1055                                         !
 ! R50   R(45,47)                1.1098                                         !
 ! R51   R(45,48)                1.1088                                         !
 ! A1    A(2,1,3)               98.6623                                         !
 ! A2    A(2,1,6)               92.4751                                         !
 ! A3    A(2,1,7)               87.631                                          !
 ! A4    A(3,1,6)              108.0025                                         !
 ! A5    A(3,1,7)               88.073                                          !
 ! A6    A(1,6,17)              83.4745                                         !
 ! A7    A(1,6,41)             125.5229                                         !
 ! A8    A(17,6,41)            142.5444                                         !
 ! A9    A(1,7,27)              95.0225                                         !
 ! A10   A(1,7,30)             119.9148                                         !
 ! A11   A(27,7,30)             83.1277                                         !
 ! A12   A(5,8,9)              121.3829                                         !
 ! A13   A(5,8,10)             125.3696                                         !
 ! A14   A(9,8,10)             113.2379                                         !
 ! A15   A(8,10,11)            121.6183                                         !
 ! A16   A(8,10,12)            120.9601                                         !
 ! A17   A(11,10,12)           117.2815                                         !
 ! A18   A(10,11,16)           109.6007                                         !
 ! A19   A(10,11,17)           109.5242                                         !
 ! A20   A(10,11,18)           109.5388                                         !
 ! A21   A(16,11,17)           109.0299                                         !
 ! A22   A(16,11,18)           110.2605                                         !
 ! A23   A(17,11,18)           108.8687                                         !
 ! A24   A(10,12,13)           109.717                                          !
 ! A25   A(10,12,14)           110.2657                                         !
 ! A26   A(10,12,15)           110.1415                                         !
 ! A27   A(13,12,14)           109.1129                                         !
 ! A28   A(13,12,15)           109.0424                                         !
 ! A29   A(14,12,15)           108.5309                                         !
 ! A30   A(6,17,11)             71.2956                                         !
 ! A31   A(6,17,42)             22.2679                                         !
 ! A32   A(11,17,42)            57.3832                                         !
 ! A33   A(4,19,20)            121.465                                          !
 ! A34   A(4,19,21)            125.3778                                         !
 ! A35   A(20,19,21)           113.1467                                         !
 ! A36   A(19,21,22)           121.2807                                         !
 ! A37   A(19,21,23)           121.0907                                         !
 ! A38   A(22,21,23)           117.5399                                         !
 ! A39   A(21,22,27)           109.8598                                         !
 ! A40   A(21,22,28)           109.8109                                         !
 ! A41   A(21,22,29)           108.8239                                         !
 ! A42   A(27,22,28)           109.0744                                         !
 ! A43   A(27,22,29)           108.8758                                         !
 ! A44   A(28,22,29)           110.3812                                         !
 ! A45   A(21,23,24)           109.6458                                         !
 ! A46   A(21,23,25)           110.1872                                         !
 ! A47   A(21,23,26)           110.2478                                         !
 ! A48   A(24,23,25)           108.9972                                         !
 ! A49   A(24,23,26)           109.1339                                         !
 ! A50   A(25,23,26)           108.5994                                         !
 ! A51   A(7,27,22)             77.4809                                         !
 ! A52   A(7,30,31)            122.1026                                         !
 ! A53   A(7,30,32)            123.784                                          !
 ! A54   A(31,30,32)           114.1126                                         !
 ! A55   A(30,32,33)           121.1877                                         !
 ! A56   A(30,32,34)           121.099                                          !
 ! A57   A(33,32,34)           117.7033                                         !
 ! A58   A(32,33,38)           109.7158                                         !
 ! A59   A(32,33,39)           110.1552                                         !
 ! A60   A(32,33,40)           108.6284                                         !
 ! A61   A(38,33,39)           108.6759                                         !
 ! A62   A(38,33,40)           109.8718                                         !
 ! A63   A(39,33,40)           109.7861                                         !
 ! A64   A(32,34,35)           109.5853                                         !
 ! A65   A(32,34,36)           110.2595                                         !
 ! A66   A(32,34,37)           110.1105                                         !
 ! A67   A(35,34,36)           109.191                                          !
 ! A68   A(35,34,37)           109.0768                                         !
 ! A69   A(36,34,37)           108.5908                                         !
 ! A70   A(6,41,42)            121.6227                                         !
 ! A71   A(6,41,43)            125.4543                                         !
 ! A72   A(42,41,43)           112.918                                          !
 ! A73   A(17,42,41)            71.8795                                         !
 ! A74   A(41,43,44)           121.3116                                         !
 ! A75   A(41,43,45)           121.0942                                         !
 ! A76   A(44,43,45)           117.4029                                         !
 ! A77   A(43,44,49)           110.2355                                         !
 ! A78   A(43,44,50)           109.6715                                         !
 ! A79   A(43,44,51)           109.098                                          !
 ! A80   A(49,44,50)           109.2135                                         !
 ! A81   A(49,44,51)           108.9037                                         !
 ! A82   A(50,44,51)           109.7033                                         !
 ! A83   A(43,45,46)           109.5862                                         !
 ! A84   A(43,45,47)           110.2249                                         !
 ! A85   A(43,45,48)           110.337                                          !
 ! A86   A(46,45,47)           108.9049                                         !
 ! A87   A(46,45,48)           109.1212                                         !
 ! A88   A(47,45,48)           108.6354                                         !
 ! A89   L(6,1,7,2,-1)         180.1061                                         !
 ! A90   L(6,1,7,2,-2)         196.3205                                         !
 ! D1    D(2,1,6,17)           147.577                                          !
 ! D2    D(2,1,6,41)            -6.5882                                         !
 ! D3    D(3,1,6,17)          -112.4865                                         !
 ! D4    D(3,1,6,41)            93.3484                                         !
 ! D5    D(2,1,7,27)           140.6725                                         !
 ! D6    D(2,1,7,30)            55.722                                          !
 ! D7    D(3,1,7,27)            41.9172                                         !
 ! D8    D(3,1,7,30)           -43.0334                                         !
 ! D9    D(1,6,17,11)          -86.5227                                         !
 ! D10   D(1,6,17,42)         -134.0742                                         !
 ! D11   D(41,6,17,11)          57.8011                                         !
 ! D12   D(41,6,17,42)          10.2496                                         !
 ! D13   D(1,6,41,42)          114.2759                                         !
 ! D14   D(1,6,41,43)          -66.5961                                         !
 ! D15   D(17,6,41,42)         -20.3322                                         !
 ! D16   D(17,6,41,43)         158.7957                                         !
 ! D17   D(1,7,27,22)           79.9107                                         !
 ! D18   D(30,7,27,22)        -160.5075                                         !
 ! D19   D(1,7,30,31)          -14.1435                                         !
 ! D20   D(1,7,30,32)          166.203                                          !
 ! D21   D(27,7,30,31)        -105.9996                                         !
 ! D22   D(27,7,30,32)          74.3468                                         !
 ! D23   D(5,8,10,11)           -2.7806                                         !
 ! D24   D(5,8,10,12)         -178.3607                                         !
 ! D25   D(9,8,10,11)          178.3367                                         !
 ! D26   D(9,8,10,12)            2.7566                                         !
 ! D27   D(8,10,11,16)         125.5685                                         !
 ! D28   D(8,10,11,17)        -114.8603                                         !
 ! D29   D(8,10,11,18)           4.476                                          !
 ! D30   D(12,10,11,16)        -58.6957                                         !
 ! D31   D(12,10,11,17)         60.8755                                         !
 ! D32   D(12,10,11,18)       -179.7883                                         !
 ! D33   D(8,10,12,13)          -4.9831                                         !
 ! D34   D(8,10,12,14)        -125.1886                                         !
 ! D35   D(8,10,12,15)         115.0573                                         !
 ! D36   D(11,10,12,13)        179.2514                                         !
 ! D37   D(11,10,12,14)         59.046                                          !
 ! D38   D(11,10,12,15)        -60.7082                                         !
 ! D39   D(10,11,17,6)         120.6087                                         !
 ! D40   D(10,11,17,42)        139.9968                                         !
 ! D41   D(16,11,17,6)        -119.4701                                         !
 ! D42   D(16,11,17,42)       -100.0819                                         !
 ! D43   D(18,11,17,6)           0.8606                                         !
 ! D44   D(18,11,17,42)         20.2487                                         !
 ! D45   D(6,17,42,41)          -7.3526                                         !
 ! D46   D(11,17,42,41)       -131.2771                                         !
 ! D47   D(4,19,21,22)           1.8369                                         !
 ! D48   D(4,19,21,23)         178.3281                                         !
 ! D49   D(20,19,21,22)       -179.3311                                         !
 ! D50   D(20,19,21,23)         -2.8398                                         !
 ! D51   D(19,21,22,27)        113.8357                                         !
 ! D52   D(19,21,22,28)       -126.2015                                         !
 ! D53   D(19,21,22,29)         -5.278                                          !
 ! D54   D(23,21,22,27)        -62.7758                                         !
 ! D55   D(23,21,22,28)         57.187                                          !
 ! D56   D(23,21,22,29)        178.1105                                         !
 ! D57   D(19,21,23,24)          4.1689                                         !
 ! D58   D(19,21,23,25)       -115.7992                                         !
 ! D59   D(19,21,23,26)        124.3439                                         !
 ! D60   D(22,21,23,24)       -179.2129                                         !
 ! D61   D(22,21,23,25)         60.8191                                         !
 ! D62   D(22,21,23,26)        -59.0378                                         !
 ! D63   D(21,22,27,7)        -115.7816                                         !
 ! D64   D(28,22,27,7)         123.8087                                         !
 ! D65   D(29,22,27,7)           3.3003                                         !
 ! D66   D(7,30,32,33)          -0.4124                                         !
 ! D67   D(7,30,32,34)        -179.2403                                         !
 ! D68   D(31,30,32,33)        179.9092                                         !
 ! D69   D(31,30,32,34)          1.0813                                         !
 ! D70   D(30,32,33,38)        126.3465                                         !
 ! D71   D(30,32,33,39)       -114.0577                                         !
 ! D72   D(30,32,33,40)          6.2241                                         !
 ! D73   D(34,32,33,38)        -54.787                                          !
 ! D74   D(34,32,33,39)         64.8088                                         !
 ! D75   D(34,32,33,40)       -174.9094                                         !
 ! D76   D(30,32,34,35)         -0.3471                                         !
 ! D77   D(30,32,34,36)       -120.5618                                         !
 ! D78   D(30,32,34,37)        119.6334                                         !
 ! D79   D(33,32,34,35)       -179.2147                                         !
 ! D80   D(33,32,34,36)         60.5707                                         !
 ! D81   D(33,32,34,37)        -59.2341                                         !
 ! D82   D(6,41,42,17)           9.4426                                         !
 ! D83   D(43,41,42,17)       -169.7862                                         !
 ! D84   D(6,41,43,44)           1.0238                                         !
 ! D85   D(6,41,43,45)         175.8659                                         !
 ! D86   D(42,41,43,44)       -179.7823                                         !
 ! D87   D(42,41,43,45)         -4.9403                                         !
 ! D88   D(41,43,44,49)        107.806                                          !
 ! D89   D(41,43,44,50)       -131.9119                                         !
 ! D90   D(41,43,44,51)        -11.7345                                         !
 ! D91   D(45,43,44,49)        -67.2194                                         !
 ! D92   D(45,43,44,50)         53.0628                                         !
 ! D93   D(45,43,44,51)        173.2402                                         !
 ! D94   D(41,43,45,46)          5.6653                                         !
 ! D95   D(41,43,45,47)       -114.1749                                         !
 ! D96   D(41,43,45,48)        125.8428                                         !
 ! D97   D(44,43,45,46)       -179.2979                                         !
 ! D98   D(44,43,45,47)         60.8619                                         !
 ! D99   D(44,43,45,48)        -59.1204                                         !
 --------------------------------------------------------------------------------
 Stoichiometry    C12H28I2N4O4Pb
 Framework group  C1[X(C12H28I2N4O4Pb)]
 Deg. of freedom   147
 Full point group                 C1      NOp   1
 Largest Abelian subgroup         C1      NOp   1
 Largest concise Abelian subgroup C1      NOp   1
                         Standard orientation:                         
 ---------------------------------------------------------------------
 Center     Atomic      Atomic             Coordinates (Angstroms)
 Number     Number       Type             X           Y           Z
 ---------------------------------------------------------------------
      1         82           0       -0.213817    0.370513    0.078122
      2         53           0       -2.521639   -1.366062    1.522811
      3         53           0        0.695486   -1.813475   -2.200332
      4          8           0        1.727893    1.819939   -0.624607
      5          8           0       -0.126156    2.024587    1.880519
      6          8           0       -1.970014    2.006293   -1.015652
      7          8           0        1.388184   -0.677635    1.603499
      8          6           0        0.783735    2.866370    2.097474
      9          1           0        1.543127    2.707621    2.899883
     10          7           0        0.942530    4.026377    1.439658
     11          6           0        0.073134    4.401780    0.332274
     12          6           0        2.053072    4.914888    1.746481
     13          1           0        2.618711    4.520272    2.610254
     14          1           0        1.677351    5.928803    1.991209
     15          1           0        2.733154    4.992107    0.873138
     16          1           0       -0.370320    5.398792    0.529003
     17          1           0        0.664645    4.447694   -0.603953
     18          1           0       -0.722885    3.645649    0.215006
     19          6           0        2.544424    1.695852   -1.572838
     20          1           0        2.435527    2.282478   -2.515793
     21          7           0        3.624446    0.894851   -1.570398
     22          6           0        3.928539    0.039277   -0.432268
     23          6           0        4.489388    0.796310   -2.736138
     24          1           0        4.150894    1.507937   -3.511253
     25          1           0        4.456930   -0.232089   -3.151117
     26          1           0        5.536439    1.032614   -2.458159
     27          1           0        3.831185   -1.026431   -0.725204
     28          1           0        4.965399    0.226999   -0.087504
     29          1           0        3.209949    0.254124    0.376534
     30          6           0        1.472646   -1.935940    1.660477
     31          1           0        0.697302   -2.601263    1.219480
     32          7           0        2.482398   -2.589244    2.252780
     33          6           0        3.583477   -1.868274    2.879414
     34          6           0        2.529322   -4.044648    2.269972
     35          1           0        1.642546   -4.450005    1.750034
     36          1           0        2.540787   -4.416090    3.314571
     37          1           0        3.445134   -4.402673    1.757386
     38          1           0        3.707122   -2.210880    3.925907
     39          1           0        4.527592   -2.059198    2.329256
     40          1           0        3.353150   -0.789573    2.862736
     41          6           0       -3.216988    1.869887   -0.975878
     42          1           0       -3.868293    2.595735   -0.432047
     43          7           0       -3.914735    0.882695   -1.571391
     44          6           0       -3.246144   -0.166810   -2.327160
     45          6           0       -5.353334    0.764465   -1.390027
     46          1           0       -5.726526    1.630440   -0.812946
     47          1           0       -5.595089   -0.167088   -0.837329
     48          1           0       -5.864654    0.735791   -2.373475
     49          1           0       -3.280174   -1.124434   -1.767006
     50          1           0       -3.748069   -0.298992   -3.306243
     51          1           0       -2.191204    0.117886   -2.485113
 ---------------------------------------------------------------------
 Rotational constants (GHZ):           0.1184542           0.0988547           0.0876807
 General basis read from cards:  (5D, 7F)
 ======================================================================================================
                                       Pseudopotential Parameters
 ======================================================================================================
  Center     Atomic      Valence      Angular      Power
  Number     Number     Electrons     Momentum     of R      Exponent        Coefficient   SO-Coeffient
 ======================================================================================================
    1         82            4
                                      G and up 
                                                     0      376.5803786       -0.17896050    0.00000000
                                                     1       86.4840014      -54.39723370    0.00000000
                                                     2       26.6784276     -199.70617590    0.00000000
                                                     2        9.4261986      -79.12239410    0.00000000
                                                     2        2.7101719      -24.98690200    0.00000000
                                                     2        0.8792031       -4.43979390    0.00000000
                                      S - G
                                                     0      132.4248796        2.81153860    0.00000000
                                                     1       47.2376044       65.03672050    0.00000000
                                                     2       17.6312727      212.78685450    0.00000000
                                                     2        5.4744712       72.10531750    0.00000000
                                                     2        1.2634856       33.01409400    0.00000000
                                                     2        0.7651447       -5.77084610    0.00000000
                                      P - G
                                                     0       67.8966454        4.87549110    0.00000000
                                                     1       24.9898225       63.91481020    0.00000000
                                                     2       10.7052939      148.10643580    0.00000000
                                                     2        3.2792568       47.31063010    0.00000000
                                                     2        0.8452522       21.03067020    0.00000000
                                                     2        0.6416245       -7.09307720    0.00000000
                                      D - G
                                                     0       68.8336005        3.21613880    0.00000000
                                                     1       24.2815874       55.73860860    0.00000000
                                                     2        9.4532762      121.41683510    0.00000000
                                                     2        2.4788185       19.34560640    0.00000000
                                                     2        2.4789161       15.36751680    0.00000000
                                                     2        0.5551738        6.12987240    0.00000000
                                      F - G
                                                     0      128.1021322        4.13536820    0.00000000
                                                     1       54.8029154       67.51284460    0.00000000
                                                     2       24.5529308      258.73731070    0.00000000
                                                     2        8.1144792      113.24782640    0.00000000
                                                     2        1.6931290       34.16802010    0.00000000
                                                     2        0.7670500       -6.55319560    0.00000000
    2         53            7
                                      F and up 
                                                     0        1.0715702       -0.07476210    0.00000000
                                                     1       44.1936028      -30.08112240    0.00000000
                                                     2       12.9367609      -75.37227210    0.00000000
                                                     2        3.1956412      -22.05637580    0.00000000
                                                     2        0.8589806       -1.69795850    0.00000000
                                      S - F
                                                     0      127.9202670        2.93800360    0.00000000
                                                     1       78.6211465       41.24712670    0.00000000
                                                     2       36.5146237      287.86800950    0.00000000
                                                     2        9.9065681      114.37585060    0.00000000
                                                     2        1.9420086       37.65477140    0.00000000
                                      P - F
                                                     0       13.0035304        2.22226300    0.00000000
                                                     1       76.0331404       39.40908310    0.00000000
                                                     2       24.1961684      177.40750020    0.00000000
                                                     2        6.4053433       77.98894620    0.00000000
                                                     2        1.5851786       25.75476410    0.00000000
                                      D - F
                                                     0       40.4278108        7.05243600    0.00000000
                                                     1       28.9084375       33.30416350    0.00000000
                                                     2       15.6268936      186.94538750    0.00000000
                                                     2        4.1442856       71.96883610    0.00000000
                                                     2        0.9377235        9.36306570    0.00000000
    3         53            7
                                      F and up 
                                                     0        1.0715702       -0.07476210    0.00000000
                                                     1       44.1936028      -30.08112240    0.00000000
                                                     2       12.9367609      -75.37227210    0.00000000
                                                     2        3.1956412      -22.05637580    0.00000000
                                                     2        0.8589806       -1.69795850    0.00000000
                                      S - F
                                                     0      127.9202670        2.93800360    0.00000000
                                                     1       78.6211465       41.24712670    0.00000000
                                                     2       36.5146237      287.86800950    0.00000000
                                                     2        9.9065681      114.37585060    0.00000000
                                                     2        1.9420086       37.65477140    0.00000000
                                      P - F
                                                     0       13.0035304        2.22226300    0.00000000
                                                     1       76.0331404       39.40908310    0.00000000
                                                     2       24.1961684      177.40750020    0.00000000
                                                     2        6.4053433       77.98894620    0.00000000
                                                     2        1.5851786       25.75476410    0.00000000
                                      D - F
                                                     0       40.4278108        7.05243600    0.00000000
                                                     1       28.9084375       33.30416350    0.00000000
                                                     2       15.6268936      186.94538750    0.00000000
                                                     2        4.1442856       71.96883610    0.00000000
                                                     2        0.9377235        9.36306570    0.00000000
    4          8
                                   No pseudopotential on this center.
    5          8
                                   No pseudopotential on this center.
    6          8
                                   No pseudopotential on this center.
    7          8
                                   No pseudopotential on this center.
    8          6
                                   No pseudopotential on this center.
    9          1
                                   No pseudopotential on this center.
   10          7
                                   No pseudopotential on this center.
   11          6
                                   No pseudopotential on this center.
   12          6
                                   No pseudopotential on this center.
   13          1
                                   No pseudopotential on this center.
   14          1
                                   No pseudopotential on this center.
   15          1
                                   No pseudopotential on this center.
   16          1
                                   No pseudopotential on this center.
   17          1
                                   No pseudopotential on this center.
   18          1
                                   No pseudopotential on this center.
   19          6
                                   No pseudopotential on this center.
   20          1
                                   No pseudopotential on this center.
   21          7
                                   No pseudopotential on this center.
   22          6
                                   No pseudopotential on this center.
   23          6
                                   No pseudopotential on this center.
   24          1
                                   No pseudopotential on this center.
   25          1
                                   No pseudopotential on this center.
   26          1
                                   No pseudopotential on this center.
   27          1
                                   No pseudopotential on this center.
   28          1
                                   No pseudopotential on this center.
   29          1
                                   No pseudopotential on this center.
   30          6
                                   No pseudopotential on this center.
   31          1
                                   No pseudopotential on this center.
   32          7
                                   No pseudopotential on this center.
   33          6
                                   No pseudopotential on this center.
   34          6
                                   No pseudopotential on this center.
   35          1
                                   No pseudopotential on this center.
   36          1
                                   No pseudopotential on this center.
   37          1
                                   No pseudopotential on this center.
   38          1
                                   No pseudopotential on this center.
   39          1
                                   No pseudopotential on this center.
   40          1
                                   No pseudopotential on this center.
   41          6
                                   No pseudopotential on this center.
   42          1
                                   No pseudopotential on this center.
   43          7
                                   No pseudopotential on this center.
   44          6
                                   No pseudopotential on this center.
   45          6
                                   No pseudopotential on this center.
   46          1
                                   No pseudopotential on this center.
   47          1
                                   No pseudopotential on this center.
   48          1
                                   No pseudopotential on this center.
   49          1
                                   No pseudopotential on this center.
   50          1
                                   No pseudopotential on this center.
   51          1
                                   No pseudopotential on this center.
 ======================================================================================================
 There are  1144 symmetry adapted cartesian basis functions of A   symmetry.
 There are  1016 symmetry adapted basis functions of A   symmetry.
  1016 basis functions,  1552 primitive gaussians,  1144 cartesian basis functions
    89 alpha electrons       89 beta electrons
       nuclear repulsion energy      1924.3795580754 Hartrees.
 NAtoms=   51 NActive=   51 NUniq=   51 SFac= 1.00D+00 NAtFMM=   60 NAOKFM=F Big=F
 Integral buffers will be    131072 words long.
 Raffenetti 1 integral format.
 Two-electron integral symmetry is turned on.
 Nuclear repulsion after empirical dispersion term =     1924.3207605033 Hartrees.
 ------------------------------------------------------------------------------
 Polarizable Continuum Model (PCM)
 =================================
 Model                : PCM.
 Atomic radii         : UFF (Universal Force Field).
 Polarization charges : Total charges.
 Charge compensation  : None.
 Solution method      : On-the-fly selection.
 Cavity type          : Scaled VdW (van der Waals Surface) (Alpha=1.100).
 Cavity algorithm     : GePol (No added spheres)
                        Default sphere list used, NSphG=   51.
                        Lebedev-Laikov grids with approx.  5.0 points / Ang**2.
                        Smoothing algorithm: York/Karplus (Gamma=1.0000).
                        Polarization charges: spherical gaussians, with
                                              point-specific exponents (IZeta= 3).
                        Self-potential: point-specific (ISelfS= 7).
                        Self-field    : sphere-specific E.n sum rule (ISelfD= 2).
 Solvent              : n,n-DiMethylFormamide, Eps=  37.219000 Eps(inf)=   2.046330
 ------------------------------------------------------------------------------
 One-electron integrals computed using PRISM.
   1 Symmetry operations used in ECPInt.
 ECPInt:  NShTT=   72390 NPrTT=  247623 LenC2=   55074 LenP2D=  122380.
 LDataN:  DoStor=T MaxTD1= 7 Len=  274
 NBasis=  1016 RedAO= T EigKep=  7.26D-04  NBF=  1016
 NBsUse=  1016 1.00D-06 EigRej= -1.00D+00 NBFU=  1016
 Defaulting to unpruned grid for atomic number  82.
 Initial guess from the checkpoint file:  "02-PbI2_dmf.chk"
 B after Tr=    -0.000000   -0.000000    0.000000
         Rot=    1.000000    0.000000    0.000000    0.000000 Ang=   0.00 deg.
 Requested convergence on RMS density matrix=1.00D-08 within 128 cycles.
 Requested convergence on MAX density matrix=1.00D-06.
 Requested convergence on             energy=1.00D-06.
 No special actions if energy rises.
 Defaulting to unpruned grid for atomic number  82.
 Defaulting to unpruned grid for atomic number  82.
 Defaulting to unpruned grid for atomic number  82.
 Defaulting to unpruned grid for atomic number  82.
 Inv3:  Mode=1 IEnd=    48940563.
 Iteration    1 A*A^-1 deviation from unit magnitude is 3.11D-15 for    737.
 Iteration    1 A*A^-1 deviation from orthogonality  is 2.66D-15 for   2522   1555.
 Iteration    1 A^-1*A deviation from unit magnitude is 3.33D-15 for   3282.
 Iteration    1 A^-1*A deviation from orthogonality  is 1.06D-14 for   2665   1786.
 Error on total polarization charges =  0.02274
 SCF Done:  E(RCAM-B3LYP) =  -1020.39601651     A.U. after   11 cycles
            NFock= 11  Conv=0.67D-08     -V/T= 2.0264
 DoSCS=F DFT=T ScalE2(SS,OS)=  1.000000  1.000000
 ExpMin= 5.98D-02 ExpMax= 1.53D+04 ExpMxC= 5.22D+02 IAcc=3 IRadAn=         5 AccDes= 0.00D+00
 HarFok:  IExCor=  205 AccDes= 0.00D+00 IRadAn=         5 IDoV=-2 UseB2=F ITyADJ=14
 ICtDFT= 12500011 ScaDFX=  1.000000  1.000000  1.000000  1.000000
 Defaulting to unpruned grid for atomic number  82.
 Range of M.O.s used for correlation:    21  1016
 NBasis=  1016 NAE=    89 NBE=    89 NFC=    20 NFV=     0
 NROrb=    996 NOA=    69 NOB=    69 NVA=   927 NVB=   927
 NEqPCM:  Using non-equilibrium solvation (IEInf=1, Eps=  37.2190, EpsInf=   2.0463)
 Inv3:  Mode=1 IEnd=    48940563.
 Iteration    1 A*A^-1 deviation from unit magnitude is 3.55D-15 for   1640.
 Iteration    1 A*A^-1 deviation from orthogonality  is 2.78D-15 for   2398    771.
 Iteration    1 A^-1*A deviation from unit magnitude is 3.33D-15 for   1640.
 Iteration    1 A^-1*A deviation from orthogonality  is 2.28D-15 for   3299   3276.
 Orbital symmetries:
       Occupied  (A) (A) (A) (A) (A) (A) (A) (A) (A) (A) (A) (A)
                 (A) (A) (A) (A) (A) (A) (A) (A) (A) (A) (A) (A)
                 (A) (A) (A) (A) (A) (A) (A) (A) (A) (A) (A) (A)
                 (A) (A) (A) (A) (A) (A) (A) (A) (A) (A) (A) (A)
                 (A) (A) (A) (A) (A) (A) (A) (A) (A) (A) (A) (A)
                 (A) (A) (A) (A) (A) (A) (A) (A) (A) (A) (A) (A)
                 (A) (A) (A) (A) (A) (A) (A) (A) (A) (A) (A) (A)
                 (A) (A) (A) (A) (A)
       Virtual   (A) (A) (A) (A) (A) (A) (A) (A) (A) (A) (A) (A)
                 (A) (A) (A) (A) (A) (A) (A) (A) (A) (A) (A) (A)
                 (A) (A) (A) (A) (A) (A) (A) (A) (A) (A) (A) (A)
                 (A) (A) (A) (A) (A) (A) (A) (A) (A) (A) (A) (A)
                 (A) (A) (A) (A) (A) (A) (A) (A) (A) (A) (A) (A)
                 (A) (A) (A) (A) (A) (A) (A) (A) (A) (A) (A) (A)
                 (A) (A) (A) (A) (A) (A) (A) (A) (A) (A) (A) (A)
                 (A) (A) (A) (A) (A) (A) (A) (A) (A) (A) (A) (A)
                 (A) (A) (A) (A) (A) (A) (A) (A) (A) (A) (A) (A)
                 (A) (A) (A) (A) (A) (A) (A) (A) (A) (A) (A) (A)
                 (A) (A) (A) (A) (A) (A) (A) (A) (A) (A) (A) (A)
                 (A) (A) (A) (A) (A) (A) (A) (A) (A) (A) (A) (A)
                 (A) (A) (A) (A) (A) (A) (A) (A) (A) (A) (A) (A)
                 (A) (A) (A) (A) (A) (A) (A) (A) (A) (A) (A) (A)
                 (A) (A) (A) (A) (A) (A) (A) (A) (A) (A) (A) (A)
                 (A) (A) (A) (A) (A) (A) (A) (A) (A) (A) (A) (A)
                 (A) (A) (A) (A) (A) (A) (A) (A) (A) (A) (A) (A)
                 (A) (A) (A) (A) (A) (A) (A) (A) (A) (A) (A) (A)
                 (A) (A) (A) (A) (A) (A) (A) (A) (A) (A) (A) (A)
                 (A) (A) (A) (A) (A) (A) (A) (A) (A) (A) (A) (A)
                 (A) (A) (A) (A) (A) (A) (A) (A) (A) (A) (A) (A)
                 (A) (A) (A) (A) (A) (A) (A) (A) (A) (A) (A) (A)
                 (A) (A) (A) (A) (A) (A) (A) (A) (A) (A) (A) (A)
                 (A) (A) (A) (A) (A) (A) (A) (A) (A) (A) (A) (A)
                 (A) (A) (A) (A) (A) (A) (A) (A) (A) (A) (A) (A)
                 (A) (A) (A) (A) (A) (A) (A) (A) (A) (A) (A) (A)
                 (A) (A) (A) (A) (A) (A) (A) (A) (A) (A) (A) (A)
                 (A) (A) (A) (A) (A) (A) (A) (A) (A) (A) (A) (A)
                 (A) (A) (A) (A) (A) (A) (A) (A) (A) (A) (A) (A)
                 (A) (A) (A) (A) (A) (A) (A) (A) (A) (A) (A) (A)
                 (A) (A) (A) (A) (A) (A) (A) (A) (A) (A) (A) (A)
                 (A) (A) (A) (A) (A) (A) (A) (A) (A) (A) (A) (A)
                 (A) (A) (A) (A) (A) (A) (A) (A) (A) (A) (A) (A)
                 (A) (A) (A) (A) (A) (A) (A) (A) (A) (A) (A) (A)
                 (A) (A) (A) (A) (A) (A) (A) (A) (A) (A) (A) (A)
                 (A) (A) (A) (A) (A) (A) (A) (A) (A) (A) (A) (A)
                 (A) (A) (A) (A) (A) (A) (A) (A) (A) (A) (A) (A)
                 (A) (A) (A) (A) (A) (A) (A) (A) (A) (A) (A) (A)
                 (A) (A) (A) (A) (A) (A) (A) (A) (A) (A) (A) (A)
                 (A) (A) (A) (A) (A) (A) (A) (A) (A) (A) (A) (A)
                 (A) (A) (A) (A) (A) (A) (A) (A) (A) (A) (A) (A)
                 (A) (A) (A) (A) (A) (A) (A) (A) (A) (A) (A) (A)
                 (A) (A) (A) (A) (A) (A) (A) (A) (A) (A) (A) (A)
                 (A) (A) (A) (A) (A) (A) (A) (A) (A) (A) (A) (A)
                 (A) (A) (A) (A) (A) (A) (A) (A) (A) (A) (A) (A)
                 (A) (A) (A) (A) (A) (A) (A) (A) (A) (A) (A) (A)
                 (A) (A) (A) (A) (A) (A) (A) (A) (A) (A) (A) (A)
                 (A) (A) (A) (A) (A) (A) (A) (A) (A) (A) (A) (A)
                 (A) (A) (A) (A) (A) (A) (A) (A) (A) (A) (A) (A)
                 (A) (A) (A) (A) (A) (A) (A) (A) (A) (A) (A) (A)
                 (A) (A) (A) (A) (A) (A) (A) (A) (A) (A) (A) (A)
                 (A) (A) (A) (A) (A) (A) (A) (A) (A) (A) (A) (A)
                 (A) (A) (A) (A) (A) (A) (A) (A) (A) (A) (A) (A)
                 (A) (A) (A) (A) (A) (A) (A) (A) (A) (A) (A) (A)
                 (A) (A) (A) (A) (A) (A) (A) (A) (A) (A) (A) (A)
                 (A) (A) (A) (A) (A) (A) (A) (A) (A) (A) (A) (A)
                 (A) (A) (A) (A) (A) (A) (A) (A) (A) (A) (A) (A)
                 (A) (A) (A) (A) (A) (A) (A) (A) (A) (A) (A) (A)
                 (A) (A) (A) (A) (A) (A) (A) (A) (A) (A) (A) (A)
                 (A) (A) (A) (A) (A) (A) (A) (A) (A) (A) (A) (A)
                 (A) (A) (A) (A) (A) (A) (A) (A) (A) (A) (A) (A)
                 (A) (A) (A) (A) (A) (A) (A) (A) (A) (A) (A) (A)
                 (A) (A) (A) (A) (A) (A) (A) (A) (A) (A) (A) (A)
                 (A) (A) (A) (A) (A) (A) (A) (A) (A) (A) (A) (A)
                 (A) (A) (A) (A) (A) (A) (A) (A) (A) (A) (A) (A)
                 (A) (A) (A) (A) (A) (A) (A) (A) (A) (A) (A) (A)
                 (A) (A) (A) (A) (A) (A) (A) (A) (A) (A) (A) (A)
                 (A) (A) (A) (A) (A) (A) (A) (A) (A) (A) (A) (A)
                 (A) (A) (A) (A) (A) (A) (A) (A) (A) (A) (A) (A)
                 (A) (A) (A) (A) (A) (A) (A) (A) (A) (A) (A) (A)
                 (A) (A) (A) (A) (A) (A) (A) (A) (A) (A) (A) (A)
                 (A) (A) (A) (A) (A) (A) (A) (A) (A) (A) (A) (A)
                 (A) (A) (A) (A) (A) (A) (A) (A) (A) (A) (A) (A)
                 (A) (A) (A) (A) (A) (A) (A) (A) (A) (A) (A) (A)
                 (A) (A) (A) (A) (A) (A) (A) (A) (A) (A) (A) (A)
                 (A) (A) (A) (A) (A) (A) (A) (A) (A) (A) (A) (A)
                 (A) (A) (A) (A) (A) (A) (A) (A) (A) (A) (A) (A)
                 (A) (A) (A)
    40 initial guesses have been made.
 Convergence on wavefunction:    0.001000000000000
 Iteration     1 Dimension    40 NMult     0 NNew     40
 CISAX will form    40 AO SS matrices at one time.
 Defaulting to unpruned grid for atomic number  82.
 Defaulting to unpruned grid for atomic number  82.
 Defaulting to unpruned grid for atomic number  82.
 Defaulting to unpruned grid for atomic number  82.
 New state      5 was old state      6
 New state      6 was old state      9
 New state      7 was old state      5
 New state      9 was old state     11
 New state     10 was old state      7
 Iteration     2 Dimension    60 NMult    40 NNew     20
 New state      8 was old state      9
 New state      9 was old state      8
 Iteration     3 Dimension    80 NMult    60 NNew     20
 Iteration     4 Dimension   100 NMult    80 NNew     20
 Iteration     5 Dimension   120 NMult   100 NNew     20
 Iteration     6 Dimension   140 NMult   120 NNew     20
 Iteration     7 Dimension   160 NMult   140 NNew     20
 Iteration     8 Dimension   176 NMult   160 NNew     16
 Iteration     9 Dimension   182 NMult   176 NNew      6
 ***********************************************************************
 Excited states from <AA,BB:AA,BB> singles matrix:
 ***********************************************************************
 
 Ground to excited state transition densities written to RWF  633
 Ground to excited state transition electric dipole moments (Au):
       state          X           Y           Z        Dip. S.      Osc.
         1        -1.5086     -0.5220      0.6018      2.9105      0.3746
         2         0.1252     -1.3826     -0.6791      2.3884      0.3115
         3         0.5872     -0.2412      0.5854      0.7457      0.0994
         4         0.2536     -0.1378     -0.3769      0.2254      0.0310
         5        -0.2365      0.1303     -0.1143      0.0860      0.0120
         6         0.1660     -0.0373     -0.0663      0.0334      0.0047
         7        -0.0323      0.0401      0.1804      0.0352      0.0050
         8         0.5719     -0.0025     -0.4206      0.5040      0.0717
         9        -0.1101     -0.0618      0.3654      0.1494      0.0214
        10        -0.5247      0.0611      0.1470      0.3006      0.0431
 Ground to excited state transition velocity dipole moments (Au):
       state          X           Y           Z        Dip. S.      Osc.
         1         0.2431      0.0762     -0.0796      0.0712      0.2460
         2        -0.0017      0.2228      0.0864      0.0571      0.1946
         3        -0.1256      0.0371     -0.1064      0.0285      0.0949
         4        -0.0333      0.0419      0.0618      0.0067      0.0216
         5         0.0614     -0.0441      0.0442      0.0077      0.0243
         6        -0.0293     -0.0098     -0.0003      0.0010      0.0030
         7         0.0111     -0.0182     -0.0408      0.0021      0.0067
         8        -0.1085     -0.0024      0.0576      0.0151      0.0472
         9         0.0092      0.0159     -0.0795      0.0067      0.0207
        10         0.1116     -0.0196     -0.0408      0.0145      0.0449
 Ground to excited state transition magnetic dipole moments (Au):
       state          X           Y           Z
         1        -0.6118      0.1430     -0.9932
         2        -0.1227      0.4426     -0.0490
         3        -0.3028     -0.1133      0.9167
         4        -0.2242      0.2266     -0.1502
         5         0.1136      0.1702     -0.0418
         6        -0.2635      0.1537     -0.3970
         7         0.0920     -0.0713      0.0432
         8        -0.0007      0.6821      0.3026
         9        -0.0797     -0.1759     -0.1548
        10        -0.5062     -0.1382     -0.0852
 Ground to excited state transition velocity quadrupole moments (Au):
       state          XX          YY          ZZ          XY          XZ          YZ
         1         0.3659      0.1237      0.1135     -0.2314     -0.1020      0.1433
         2         0.4957      1.0710     -0.2935      0.4692      0.2991     -0.0258
         3         0.7151     -0.6420     -0.0339     -0.0816      0.2303      0.2378
         4         0.0421      0.0474      0.1384      0.0045     -0.1304     -0.0705
         5        -0.3849      0.1942      0.1606     -0.0230     -0.0691     -0.1561
         6         0.0754      0.1235     -0.1793      0.1101      0.0717      0.0753
         7         0.3431     -0.1641     -0.0844     -0.0517      0.0148      0.0132
         8        -0.0705      0.2805     -0.0276      0.1942      0.3960     -0.1793
         9         0.0847     -0.3263      0.2894      0.0518     -0.0398      0.1179
        10         0.0972      0.0179     -0.0671     -0.0484     -0.1222     -0.0556
 <0|del|b> * <b|rxdel|0> + <0|del|b> * <b|delr+rdel|0>
 Rotatory Strengths (R) in cgs (10**-40 erg-esu-cm/Gauss)
       state          XX          YY          ZZ    R(velocity)    E-M Angle
         1       212.7252    -97.5194   -330.4944    -71.7629      100.80
         2       123.3806    -80.4376    298.9094    113.9508       31.03
         3      -179.6462   -173.3367    127.8104    -75.0575      112.84
         4        10.1918      0.4264     15.6514      8.7565       74.55
         5       -22.5690     -5.7884     20.3578     -2.6665       97.47
         6        -1.2103      9.4647     12.8977      7.0507       65.88
         7         3.1879     -4.5085      3.1701      0.6165       84.43
         8        46.3136     42.7112    -36.3613     17.5545       80.02
         9         9.9233     27.6740     -8.6649      9.6441       64.27
        10         9.4774   -100.5679    -74.2577    -55.1160      141.79
 1/2[<0|r|b>*<b|rxdel|0> + (<0|rxdel|b>*<b|r|0>)*]
 Rotatory Strengths (R) in cgs (10**-40 erg-esu-cm/Gauss)
       state          XX          YY          ZZ     R(length)
         1      -652.6674     52.7826    422.6908    -59.0647
         2        10.8585    432.7421    -23.5385    140.0207
         3       125.7572    -19.3166   -379.4760    -91.0118
         4        40.1971     22.0713    -40.0333      7.4117
         5        19.0043    -15.6777     -3.3834     -0.0190
         6        30.9325      4.0584    -18.6236      5.4557
         7         2.0990      2.0234     -5.5093     -0.4623
         8         0.2887      1.1848     89.9987     30.4907
         9        -6.2068     -7.6881     39.9855      8.6969
        10      -187.8188      5.9668      8.8588    -57.6644
  1/2[<0|del|b>*<b|r|0> + (<0|r|b>*<b|del|0>)*] (Au)
       state          X           Y           Z        Dip. S.   Osc.(frdel)
         1        -0.3667     -0.0398     -0.0479      0.4544      0.3029
         2        -0.0002     -0.3080     -0.0587      0.3669      0.2446
         3        -0.0738     -0.0089     -0.0623      0.1450      0.0967
         4        -0.0084     -0.0058     -0.0233      0.0375      0.0250
         5        -0.0145     -0.0057     -0.0051      0.0253      0.0169
         6        -0.0049      0.0004      0.0000      0.0045      0.0030
         7        -0.0004     -0.0007     -0.0074      0.0085      0.0056
         8        -0.0621      0.0000     -0.0242      0.0863      0.0575
         9        -0.0010     -0.0010     -0.0291      0.0311      0.0207
        10        -0.0586     -0.0012     -0.0060      0.0657      0.0438

 Excitation energies and oscillator strengths:
 
 Excited State   1:      Singlet-A      5.2530 eV  236.02 nm  f=0.3746  <S**2>=0.000
      89 ->  90        0.67170
 This state for optimization and/or second-order correction.
 Total Energy, E(TD-HF/TD-DFT) =  -1020.20297112    
 Copying the excited state density for this state as the 1-particle RhoCI density.
 
 Excited State   2:      Singlet-A      5.3240 eV  232.88 nm  f=0.3115  <S**2>=0.000
      89 ->  91        0.65024
      89 ->  96       -0.10478
 
 Excited State   3:      Singlet-A      5.4402 eV  227.90 nm  f=0.0994  <S**2>=0.000
      79 ->  92        0.10809
      89 ->  92        0.63890
      89 ->  94       -0.13756
 
 Excited State   4:      Singlet-A      5.6192 eV  220.65 nm  f=0.0310  <S**2>=0.000
      88 ->  90        0.62906
      88 ->  91       -0.16222
      88 ->  92        0.11444
      88 ->  94       -0.12818
 
 Excited State   5:      Singlet-A      5.7198 eV  216.76 nm  f=0.0120  <S**2>=0.000
      86 ->  90       -0.42268
      86 ->  92       -0.14868
      86 ->  94        0.16848
      87 ->  90        0.44761
 
 Excited State   6:      Singlet-A      5.7571 eV  215.36 nm  f=0.0047  <S**2>=0.000
      85 ->  91        0.13922
      86 ->  90        0.20730
      87 ->  90        0.17457
      88 ->  90        0.11782
      88 ->  91        0.48919
      88 ->  94        0.14327
      88 ->  96       -0.15101
      89 ->  93       -0.21206
 
 Excited State   7:      Singlet-A      5.7778 eV  214.59 nm  f=0.0050  <S**2>=0.000
      85 ->  90        0.16787
      86 ->  90        0.37671
      86 ->  91       -0.10678
      87 ->  90        0.39215
      87 ->  91       -0.15393
      88 ->  91       -0.20104
      89 ->  93        0.16302
 
 Excited State   8:      Singlet-A      5.8063 eV  213.53 nm  f=0.0717  <S**2>=0.000
      76 ->  93        0.13796
      79 ->  93        0.11622
      85 ->  90        0.24785
      87 ->  90       -0.11224
      87 ->  91        0.16868
      88 ->  90        0.12800
      88 ->  91        0.18874
      89 ->  93        0.45590
 
 Excited State   9:      Singlet-A      5.8345 eV  212.50 nm  f=0.0214  <S**2>=0.000
      85 ->  90        0.10694
      85 ->  91       -0.11019
      86 ->  91        0.14644
      87 ->  90        0.13025
      87 ->  91        0.52871
      87 ->  94        0.14719
      87 ->  96       -0.17095
      89 ->  93       -0.15017
 
 Excited State  10:      Singlet-A      5.8544 eV  211.78 nm  f=0.0431  <S**2>=0.000
      78 ->  90        0.11421
      85 ->  90        0.50121
      85 ->  92        0.10347
      86 ->  90       -0.11221
      87 ->  90       -0.22458
      87 ->  91       -0.14975
      89 ->  93       -0.20266
 SavETr:  write IOETrn=   770 NScale= 10 NData=  16 NLR=1 NState=   10 LETran=     190.

 **********************************************************************

            Population analysis using the SCF Density.

 **********************************************************************

 Orbital symmetries:
       Occupied  (A) (A) (A) (A) (A) (A) (A) (A) (A) (A) (A) (A)
                 (A) (A) (A) (A) (A) (A) (A) (A) (A) (A) (A) (A)
                 (A) (A) (A) (A) (A) (A) (A) (A) (A) (A) (A) (A)
                 (A) (A) (A) (A) (A) (A) (A) (A) (A) (A) (A) (A)
                 (A) (A) (A) (A) (A) (A) (A) (A) (A) (A) (A) (A)
                 (A) (A) (A) (A) (A) (A) (A) (A) (A) (A) (A) (A)
                 (A) (A) (A) (A) (A) (A) (A) (A) (A) (A) (A) (A)
                 (A) (A) (A) (A) (A)
       Virtual   (A) (A) (A) (A) (A) (A) (A) (A) (A) (A) (A) (A)
                 (A) (A) (A) (A) (A) (A) (A) (A) (A) (A) (A) (A)
                 (A) (A) (A) (A) (A) (A) (A) (A) (A) (A) (A) (A)
                 (A) (A) (A) (A) (A) (A) (A) (A) (A) (A) (A) (A)
                 (A) (A) (A) (A) (A) (A) (A) (A) (A) (A) (A) (A)
                 (A) (A) (A) (A) (A) (A) (A) (A) (A) (A) (A) (A)
                 (A) (A) (A) (A) (A) (A) (A) (A) (A) (A) (A) (A)
                 (A) (A) (A) (A) (A) (A) (A) (A) (A) (A) (A) (A)
                 (A) (A) (A) (A) (A) (A) (A) (A) (A) (A) (A) (A)
                 (A) (A) (A) (A) (A) (A) (A) (A) (A) (A) (A) (A)
                 (A) (A) (A) (A) (A) (A) (A) (A) (A) (A) (A) (A)
                 (A) (A) (A) (A) (A) (A) (A) (A) (A) (A) (A) (A)
                 (A) (A) (A) (A) (A) (A) (A) (A) (A) (A) (A) (A)
                 (A) (A) (A) (A) (A) (A) (A) (A) (A) (A) (A) (A)
                 (A) (A) (A) (A) (A) (A) (A) (A) (A) (A) (A) (A)
                 (A) (A) (A) (A) (A) (A) (A) (A) (A) (A) (A) (A)
                 (A) (A) (A) (A) (A) (A) (A) (A) (A) (A) (A) (A)
                 (A) (A) (A) (A) (A) (A) (A) (A) (A) (A) (A) (A)
                 (A) (A) (A) (A) (A) (A) (A) (A) (A) (A) (A) (A)
                 (A) (A) (A) (A) (A) (A) (A) (A) (A) (A) (A) (A)
                 (A) (A) (A) (A) (A) (A) (A) (A) (A) (A) (A) (A)
                 (A) (A) (A) (A) (A) (A) (A) (A) (A) (A) (A) (A)
                 (A) (A) (A) (A) (A) (A) (A) (A) (A) (A) (A) (A)
                 (A) (A) (A) (A) (A) (A) (A) (A) (A) (A) (A) (A)
                 (A) (A) (A) (A) (A) (A) (A) (A) (A) (A) (A) (A)
                 (A) (A) (A) (A) (A) (A) (A) (A) (A) (A) (A) (A)
                 (A) (A) (A) (A) (A) (A) (A) (A) (A) (A) (A) (A)
                 (A) (A) (A) (A) (A) (A) (A) (A) (A) (A) (A) (A)
                 (A) (A) (A) (A) (A) (A) (A) (A) (A) (A) (A) (A)
                 (A) (A) (A) (A) (A) (A) (A) (A) (A) (A) (A) (A)
                 (A) (A) (A) (A) (A) (A) (A) (A) (A) (A) (A) (A)
                 (A) (A) (A) (A) (A) (A) (A) (A) (A) (A) (A) (A)
                 (A) (A) (A) (A) (A) (A) (A) (A) (A) (A) (A) (A)
                 (A) (A) (A) (A) (A) (A) (A) (A) (A) (A) (A) (A)
                 (A) (A) (A) (A) (A) (A) (A) (A) (A) (A) (A) (A)
                 (A) (A) (A) (A) (A) (A) (A) (A) (A) (A) (A) (A)
                 (A) (A) (A) (A) (A) (A) (A) (A) (A) (A) (A) (A)
                 (A) (A) (A) (A) (A) (A) (A) (A) (A) (A) (A) (A)
                 (A) (A) (A) (A) (A) (A) (A) (A) (A) (A) (A) (A)
                 (A) (A) (A) (A) (A) (A) (A) (A) (A) (A) (A) (A)
                 (A) (A) (A) (A) (A) (A) (A) (A) (A) (A) (A) (A)
                 (A) (A) (A) (A) (A) (A) (A) (A) (A) (A) (A) (A)
                 (A) (A) (A) (A) (A) (A) (A) (A) (A) (A) (A) (A)
                 (A) (A) (A) (A) (A) (A) (A) (A) (A) (A) (A) (A)
                 (A) (A) (A) (A) (A) (A) (A) (A) (A) (A) (A) (A)
                 (A) (A) (A) (A) (A) (A) (A) (A) (A) (A) (A) (A)
                 (A) (A) (A) (A) (A) (A) (A) (A) (A) (A) (A) (A)
                 (A) (A) (A) (A) (A) (A) (A) (A) (A) (A) (A) (A)
                 (A) (A) (A) (A) (A) (A) (A) (A) (A) (A) (A) (A)
                 (A) (A) (A) (A) (A) (A) (A) (A) (A) (A) (A) (A)
                 (A) (A) (A) (A) (A) (A) (A) (A) (A) (A) (A) (A)
                 (A) (A) (A) (A) (A) (A) (A) (A) (A) (A) (A) (A)
                 (A) (A) (A) (A) (A) (A) (A) (A) (A) (A) (A) (A)
                 (A) (A) (A) (A) (A) (A) (A) (A) (A) (A) (A) (A)
                 (A) (A) (A) (A) (A) (A) (A) (A) (A) (A) (A) (A)
                 (A) (A) (A) (A) (A) (A) (A) (A) (A) (A) (A) (A)
                 (A) (A) (A) (A) (A) (A) (A) (A) (A) (A) (A) (A)
                 (A) (A) (A) (A) (A) (A) (A) (A) (A) (A) (A) (A)
                 (A) (A) (A) (A) (A) (A) (A) (A) (A) (A) (A) (A)
                 (A) (A) (A) (A) (A) (A) (A) (A) (A) (A) (A) (A)
                 (A) (A) (A) (A) (A) (A) (A) (A) (A) (A) (A) (A)
                 (A) (A) (A) (A) (A) (A) (A) (A) (A) (A) (A) (A)
                 (A) (A) (A) (A) (A) (A) (A) (A) (A) (A) (A) (A)
                 (A) (A) (A) (A) (A) (A) (A) (A) (A) (A) (A) (A)
                 (A) (A) (A) (A) (A) (A) (A) (A) (A) (A) (A) (A)
                 (A) (A) (A) (A) (A) (A) (A) (A) (A) (A) (A) (A)
                 (A) (A) (A) (A) (A) (A) (A) (A) (A) (A) (A) (A)
                 (A) (A) (A) (A) (A) (A) (A) (A) (A) (A) (A) (A)
                 (A) (A) (A) (A) (A) (A) (A) (A) (A) (A) (A) (A)
                 (A) (A) (A) (A) (A) (A) (A) (A) (A) (A) (A) (A)
                 (A) (A) (A) (A) (A) (A) (A) (A) (A) (A) (A) (A)
                 (A) (A) (A) (A) (A) (A) (A) (A) (A) (A) (A) (A)
                 (A) (A) (A) (A) (A) (A) (A) (A) (A) (A) (A) (A)
                 (A) (A) (A) (A) (A) (A) (A) (A) (A) (A) (A) (A)
                 (A) (A) (A) (A) (A) (A) (A) (A) (A) (A) (A) (A)
                 (A) (A) (A) (A) (A) (A) (A) (A) (A) (A) (A) (A)
                 (A) (A) (A) (A) (A) (A) (A) (A) (A) (A) (A) (A)
                 (A) (A) (A)
 The electronic state is 1-A.
 Alpha  occ. eigenvalues --  -19.20636 -19.19720 -19.19693 -19.19276 -14.45509
 Alpha  occ. eigenvalues --  -14.45049 -14.45007 -14.44668 -10.37515 -10.37185
 Alpha  occ. eigenvalues --  -10.37149 -10.36796 -10.29347 -10.29194 -10.29142
 Alpha  occ. eigenvalues --  -10.28991 -10.28875 -10.28244 -10.28167 -10.28022
 Alpha  occ. eigenvalues --   -1.14154  -1.13522  -1.13209  -1.12978  -1.04434
 Alpha  occ. eigenvalues --   -1.03981  -1.03910  -1.03639  -0.81987  -0.81497
 Alpha  occ. eigenvalues --   -0.81415  -0.81410  -0.79856  -0.79462  -0.79392
 Alpha  occ. eigenvalues --   -0.79099  -0.68881  -0.68085  -0.65929  -0.65573
 Alpha  occ. eigenvalues --   -0.65342  -0.65174  -0.61540  -0.60159  -0.59908
 Alpha  occ. eigenvalues --   -0.59682  -0.59439  -0.57014  -0.56666  -0.56246
 Alpha  occ. eigenvalues --   -0.55991  -0.55847  -0.55614  -0.55249  -0.52628
 Alpha  occ. eigenvalues --   -0.50222  -0.49751  -0.49492  -0.48486  -0.48119
 Alpha  occ. eigenvalues --   -0.47969  -0.47781  -0.47702  -0.47612  -0.47400
 Alpha  occ. eigenvalues --   -0.47282  -0.47095  -0.47032  -0.46670  -0.46479
 Alpha  occ. eigenvalues --   -0.46171  -0.45742  -0.45246  -0.45113  -0.43837
 Alpha  occ. eigenvalues --   -0.37232  -0.36182  -0.36055  -0.35150  -0.33481
 Alpha  occ. eigenvalues --   -0.33453  -0.32849  -0.32488  -0.29898  -0.28658
 Alpha  occ. eigenvalues --   -0.28290  -0.28001  -0.27576  -0.26121
 Alpha virt. eigenvalues --    0.01888   0.02084   0.03074   0.03931   0.05558
 Alpha virt. eigenvalues --    0.06213   0.06503   0.06937   0.07577   0.08201
 Alpha virt. eigenvalues --    0.08556   0.09597   0.10754   0.11093   0.11158
 Alpha virt. eigenvalues --    0.12034   0.12483   0.12920   0.13040   0.13834
 Alpha virt. eigenvalues --    0.14067   0.14121   0.14585   0.14945   0.15256
 Alpha virt. eigenvalues --    0.15793   0.16296   0.16522   0.16893   0.17596
 Alpha virt. eigenvalues --    0.17713   0.18046   0.18079   0.18585   0.18941
 Alpha virt. eigenvalues --    0.19373   0.20144   0.20892   0.21901   0.22814
 Alpha virt. eigenvalues --    0.23156   0.23648   0.24077   0.24280   0.24589
 Alpha virt. eigenvalues --    0.25115   0.25404   0.26435   0.26721   0.27329
 Alpha virt. eigenvalues --    0.27445   0.27815   0.28361   0.29293   0.30229
 Alpha virt. eigenvalues --    0.31181   0.31593   0.32477   0.33258   0.33519
 Alpha virt. eigenvalues --    0.34004   0.34645   0.35301   0.36236   0.36352
 Alpha virt. eigenvalues --    0.36999   0.37354   0.37588   0.37843   0.37927
 Alpha virt. eigenvalues --    0.38095   0.38755   0.39391   0.40285   0.40837
 Alpha virt. eigenvalues --    0.41240   0.41481   0.42205   0.42537   0.43097
 Alpha virt. eigenvalues --    0.43650   0.43903   0.44896   0.45604   0.45945
 Alpha virt. eigenvalues --    0.46750   0.47547   0.47612   0.47980   0.48115
 Alpha virt. eigenvalues --    0.48370   0.48561   0.48976   0.49271   0.49396
 Alpha virt. eigenvalues --    0.49724   0.49793   0.50164   0.50286   0.50520
 Alpha virt. eigenvalues --    0.50742   0.51135   0.51224   0.51565   0.51656
 Alpha virt. eigenvalues --    0.51942   0.52218   0.52551   0.53001   0.53299
 Alpha virt. eigenvalues --    0.53337   0.53604   0.54196   0.54558   0.54940
 Alpha virt. eigenvalues --    0.55283   0.55408   0.55851   0.55867   0.56448
 Alpha virt. eigenvalues --    0.56706   0.57267   0.57618   0.58088   0.58387
 Alpha virt. eigenvalues --    0.58632   0.59827   0.60348   0.60627   0.61252
 Alpha virt. eigenvalues --    0.61944   0.62203   0.62686   0.63571   0.64009
 Alpha virt. eigenvalues --    0.64925   0.65192   0.66634   0.67403   0.67516
 Alpha virt. eigenvalues --    0.69153   0.69883   0.70610   0.70705   0.71384
 Alpha virt. eigenvalues --    0.72105   0.72328   0.73120   0.73314   0.74239
 Alpha virt. eigenvalues --    0.74442   0.75174   0.75927   0.77048   0.77846
 Alpha virt. eigenvalues --    0.78192   0.80057   0.80442   0.80598   0.81196
 Alpha virt. eigenvalues --    0.82218   0.82907   0.83151   0.84035   0.84439
 Alpha virt. eigenvalues --    0.85427   0.86539   0.86684   0.87088   0.88706
 Alpha virt. eigenvalues --    0.88960   0.89599   0.90298   0.90566   0.90891
 Alpha virt. eigenvalues --    0.91712   0.91972   0.92134   0.92904   0.94252
 Alpha virt. eigenvalues --    0.94582   0.94667   0.95250   0.95495   0.96339
 Alpha virt. eigenvalues --    0.97015   0.98272   0.98570   0.98774   0.99425
 Alpha virt. eigenvalues --    0.99628   1.00201   1.00631   1.00876   1.01148
 Alpha virt. eigenvalues --    1.01625   1.02771   1.03332   1.03540   1.03868
 Alpha virt. eigenvalues --    1.04123   1.04581   1.04970   1.05141   1.05314
 Alpha virt. eigenvalues --    1.05567   1.05620   1.05888   1.06094   1.06507
 Alpha virt. eigenvalues --    1.06833   1.07327   1.07835   1.08413   1.08527
 Alpha virt. eigenvalues --    1.09281   1.09573   1.11362   1.12192   1.12379
 Alpha virt. eigenvalues --    1.13141   1.13591   1.14079   1.14624   1.14921
 Alpha virt. eigenvalues --    1.15541   1.16265   1.16748   1.16933   1.17573
 Alpha virt. eigenvalues --    1.18430   1.18834   1.19669   1.20132   1.20796
 Alpha virt. eigenvalues --    1.21092   1.21859   1.22845   1.22992   1.23390
 Alpha virt. eigenvalues --    1.24279   1.24763   1.25711   1.26360   1.26833
 Alpha virt. eigenvalues --    1.27264   1.27662   1.27955   1.28482   1.28663
 Alpha virt. eigenvalues --    1.29311   1.29615   1.30030   1.30179   1.30391
 Alpha virt. eigenvalues --    1.31014   1.31364   1.31654   1.32019   1.32338
 Alpha virt. eigenvalues --    1.32934   1.33307   1.34688   1.35456   1.35748
 Alpha virt. eigenvalues --    1.36418   1.36625   1.37205   1.37240   1.37802
 Alpha virt. eigenvalues --    1.38321   1.38799   1.38867   1.39177   1.39831
 Alpha virt. eigenvalues --    1.40270   1.40597   1.40967   1.41835   1.42788
 Alpha virt. eigenvalues --    1.43499   1.44247   1.44970   1.46183   1.46755
 Alpha virt. eigenvalues --    1.47457   1.48425   1.48911   1.49562   1.50227
 Alpha virt. eigenvalues --    1.50391   1.51946   1.52377   1.53118   1.54039
 Alpha virt. eigenvalues --    1.54286   1.54415   1.54779   1.55380   1.56234
 Alpha virt. eigenvalues --    1.56741   1.57433   1.58411   1.59310   1.59787
 Alpha virt. eigenvalues --    1.60170   1.61268   1.62808   1.63696   1.64994
 Alpha virt. eigenvalues --    1.66206   1.68501   1.71406   1.72733   1.73641
 Alpha virt. eigenvalues --    1.74176   1.74692   1.75706   1.75855   1.76926
 Alpha virt. eigenvalues --    1.81475   1.81808   1.82657   1.83569   1.84309
 Alpha virt. eigenvalues --    1.84465   1.85282   1.85447   1.86557   1.87281
 Alpha virt. eigenvalues --    1.87659   1.88204   1.94858   1.95303   1.96011
 Alpha virt. eigenvalues --    1.96892   1.98241   1.99160   1.99324   2.00727
 Alpha virt. eigenvalues --    2.08933   2.09939   2.10683   2.11439   2.13758
 Alpha virt. eigenvalues --    2.14193   2.14703   2.15919   2.16490   2.17133
 Alpha virt. eigenvalues --    2.18440   2.20231   2.25208   2.27198   2.28195
 Alpha virt. eigenvalues --    2.28389   2.29418   2.30555   2.31471   2.32549
 Alpha virt. eigenvalues --    2.33948   2.34510   2.35269   2.36704   2.37498
 Alpha virt. eigenvalues --    2.38356   2.39602   2.40508   2.40736   2.43170
 Alpha virt. eigenvalues --    2.44346   2.46323   2.46760   2.47839   2.48450
 Alpha virt. eigenvalues --    2.49432   2.50220   2.50308   2.52840   2.55147
 Alpha virt. eigenvalues --    2.55706   2.57093   2.58106   2.58566   2.61944
 Alpha virt. eigenvalues --    2.62293   2.63900   2.65698   2.67420   2.67949
 Alpha virt. eigenvalues --    2.68189   2.68646   2.69033   2.69436   2.69602
 Alpha virt. eigenvalues --    2.69688   2.70192   2.70483   2.70540   2.70964
 Alpha virt. eigenvalues --    2.71131   2.71660   2.71748   2.72219   2.72540
 Alpha virt. eigenvalues --    2.72874   2.73993   2.75958   2.78087   2.78515
 Alpha virt. eigenvalues --    2.79406   2.80344   2.82344   2.82815   2.83119
 Alpha virt. eigenvalues --    2.83395   2.83547   2.83662   2.83757   2.84028
 Alpha virt. eigenvalues --    2.84373   2.84859   2.84905   2.85056   2.85378
 Alpha virt. eigenvalues --    2.85688   2.85991   2.86235   2.86419   2.87214
 Alpha virt. eigenvalues --    2.87554   2.88237   2.90493   2.91079   2.91717
 Alpha virt. eigenvalues --    2.91828   2.91978   2.92504   2.92988   2.93128
 Alpha virt. eigenvalues --    2.93847   2.94032   2.94392   2.94636   2.94957
 Alpha virt. eigenvalues --    2.95553   2.95867   2.96471   2.97060   2.97582
 Alpha virt. eigenvalues --    2.98273   2.98768   2.99112   2.99578   2.99969
 Alpha virt. eigenvalues --    3.01286   3.02861   3.03011   3.03622   3.04210
 Alpha virt. eigenvalues --    3.05580   3.05893   3.06046   3.06167   3.06693
 Alpha virt. eigenvalues --    3.07285   3.07814   3.09173   3.09918   3.10394
 Alpha virt. eigenvalues --    3.10640   3.11460   3.11800   3.12001   3.12568
 Alpha virt. eigenvalues --    3.12796   3.13119   3.13268   3.13568   3.13785
 Alpha virt. eigenvalues --    3.14093   3.14530   3.14613   3.16222   3.16818
 Alpha virt. eigenvalues --    3.16839   3.17305   3.17704   3.18182   3.18581
 Alpha virt. eigenvalues --    3.19098   3.19544   3.20547   3.21087   3.21542
 Alpha virt. eigenvalues --    3.21640   3.24968   3.25353   3.25615   3.26330
 Alpha virt. eigenvalues --    3.29114   3.29269   3.29773   3.29969   3.30443
 Alpha virt. eigenvalues --    3.30488   3.31354   3.31425   3.32080   3.32253
 Alpha virt. eigenvalues --    3.33293   3.34106   3.34233   3.34548   3.35439
 Alpha virt. eigenvalues --    3.36135   3.36631   3.36983   3.37192   3.37349
 Alpha virt. eigenvalues --    3.37632   3.37890   3.38133   3.38398   3.38521
 Alpha virt. eigenvalues --    3.38909   3.39049   3.39368   3.39456   3.40066
 Alpha virt. eigenvalues --    3.40342   3.41007   3.42054   3.42442   3.43236
 Alpha virt. eigenvalues --    3.43950   3.45156   3.45959   3.46497   3.46884
 Alpha virt. eigenvalues --    3.47657   3.47881   3.47979   3.48188   3.48884
 Alpha virt. eigenvalues --    3.49039   3.49089   3.49378   3.50168   3.50489
 Alpha virt. eigenvalues --    3.50884   3.51287   3.51552   3.52054   3.52484
 Alpha virt. eigenvalues --    3.53194   3.54288   3.54776   3.54917   3.55099
 Alpha virt. eigenvalues --    3.55752   3.56246   3.56595   3.57053   3.57736
 Alpha virt. eigenvalues --    3.58306   3.59147   3.59730   3.62964   3.63174
 Alpha virt. eigenvalues --    3.64625   3.65162   3.65898   3.66258   3.66467
 Alpha virt. eigenvalues --    3.66772   3.69415   3.69466   3.70626   3.70994
 Alpha virt. eigenvalues --    3.73026   3.73270   3.74242   3.75040   3.77417
 Alpha virt. eigenvalues --    3.77510   3.77706   3.78474   3.79173   3.79304
 Alpha virt. eigenvalues --    3.79400   3.79593   3.79801   3.79916   3.80345
 Alpha virt. eigenvalues --    3.80796   3.84140   3.84232   3.85108   3.85604
 Alpha virt. eigenvalues --    3.85829   3.86003   3.86596   3.88456   3.91860
 Alpha virt. eigenvalues --    3.93096   3.93258   3.93466   3.93846   3.94041
 Alpha virt. eigenvalues --    3.95111   3.95413   3.95553   3.96334   3.96426
 Alpha virt. eigenvalues --    3.96684   3.96979   3.97125   3.98616   3.99573
 Alpha virt. eigenvalues --    4.00700   4.01223   4.01728   4.02059   4.03394
 Alpha virt. eigenvalues --    4.03594   4.04079   4.04120   4.04375   4.04727
 Alpha virt. eigenvalues --    4.05014   4.05148   4.05340   4.05766   4.06555
 Alpha virt. eigenvalues --    4.06945   4.07412   4.08238   4.09387   4.09634
 Alpha virt. eigenvalues --    4.09884   4.10314   4.11305   4.11443   4.11962
 Alpha virt. eigenvalues --    4.12133   4.12296   4.12487   4.13303   4.13501
 Alpha virt. eigenvalues --    4.13872   4.15984   4.16193   4.16510   4.16906
 Alpha virt. eigenvalues --    4.17519   4.17861   4.18912   4.20133   4.22444
 Alpha virt. eigenvalues --    4.25157   4.25321   4.25489   4.25688   4.25997
 Alpha virt. eigenvalues --    4.26106   4.26294   4.26663   4.26796   4.27190
 Alpha virt. eigenvalues --    4.27437   4.27673   4.27735   4.28864   4.29518
 Alpha virt. eigenvalues --    4.31699   4.31911   4.32601   4.32833   4.33586
 Alpha virt. eigenvalues --    4.34691   4.35208   4.36492   4.37272   4.41261
 Alpha virt. eigenvalues --    4.42410   4.43031   4.43555   4.48565   4.48769
 Alpha virt. eigenvalues --    4.49632   4.50216   4.51375   4.52558   4.52698
 Alpha virt. eigenvalues --    4.52908   4.53323   4.53589   4.53764   4.54368
 Alpha virt. eigenvalues --    4.59917   4.60283   4.60375   4.61995   4.62519
 Alpha virt. eigenvalues --    4.62822   4.63473   4.65317   4.68486   4.69554
 Alpha virt. eigenvalues --    4.69676   4.69818   4.69948   4.70039   4.71095
 Alpha virt. eigenvalues --    4.71243   4.72175   4.72204   4.72821   4.73254
 Alpha virt. eigenvalues --    4.76287   4.76763   4.76972   4.77248   4.82795
 Alpha virt. eigenvalues --    4.83512   4.83994   4.84934   4.85424   4.85883
 Alpha virt. eigenvalues --    4.86119   4.87159   4.87911   4.88418   4.88706
 Alpha virt. eigenvalues --    4.89126   4.93546   4.93715   4.94449   4.94797
 Alpha virt. eigenvalues --    5.00078   5.00135   5.00465   5.00511   5.01016
 Alpha virt. eigenvalues --    5.01105   5.01411   5.01731   5.02283   5.02327
 Alpha virt. eigenvalues --    5.02717   5.03552   5.04016   5.04098   5.04385
 Alpha virt. eigenvalues --    5.04540   5.04719   5.05040   5.05094   5.05274
 Alpha virt. eigenvalues --    5.15353   5.15542   5.15810   5.15982   5.18898
 Alpha virt. eigenvalues --    5.19137   5.19286   5.19518   5.19888   5.20008
 Alpha virt. eigenvalues --    5.20254   5.20695   5.20795   5.21046   5.21637
 Alpha virt. eigenvalues --    5.21769   5.21808   5.22183   5.22413   5.22652
 Alpha virt. eigenvalues --    5.22894   5.23220   5.23418   5.24093   5.25887
 Alpha virt. eigenvalues --    5.27056   5.28778   5.29128   5.30408   5.30824
 Alpha virt. eigenvalues --    5.31017   5.31100   5.31329   5.31428   5.31822
 Alpha virt. eigenvalues --    5.33000   5.34560   5.35644   5.36186   5.36883
 Alpha virt. eigenvalues --    5.37082   5.37451   5.38043   5.38314   5.39102
 Alpha virt. eigenvalues --    5.39516   5.39985   5.40285   5.40935   5.41084
 Alpha virt. eigenvalues --    5.41440   5.41592   5.42344   5.42746   5.43058
 Alpha virt. eigenvalues --    5.44027   5.45776   5.46515   5.46629   5.46803
 Alpha virt. eigenvalues --    5.47107   5.47580   5.47717   5.48354   5.60585
 Alpha virt. eigenvalues --    5.60729   5.61768   5.62536   5.68206   5.68558
 Alpha virt. eigenvalues --    5.68954   5.70108   5.73946   5.74706   5.75346
 Alpha virt. eigenvalues --    5.75697   5.75955   5.76787   5.77028   5.77145
 Alpha virt. eigenvalues --    5.77458   5.77970   5.78504   5.79822   5.86107
 Alpha virt. eigenvalues --    5.86401   5.86618   5.87368   5.88351   5.89223
 Alpha virt. eigenvalues --    5.89628   5.90542   5.91449   5.93272   5.93787
 Alpha virt. eigenvalues --    5.94433   5.95972   5.96163   5.96298   5.96978
 Alpha virt. eigenvalues --    5.99632   6.00447   6.01902   6.02348   6.05596
 Alpha virt. eigenvalues --    6.06239   6.06580   6.06878   6.10759   6.11555
 Alpha virt. eigenvalues --    6.12634   6.13611   6.14517   6.15923   6.16944
 Alpha virt. eigenvalues --    6.17091   6.30691   6.31597   6.32346   6.34197
 Alpha virt. eigenvalues --    6.43035   6.43598   6.44646   6.45086   6.53014
 Alpha virt. eigenvalues --    6.53841   6.55235   6.55324   6.86602   6.87783
 Alpha virt. eigenvalues --    6.88271   6.89189   6.93654   6.94771   6.95419
 Alpha virt. eigenvalues --    6.96195   7.11245   7.13843   7.15091   7.17133
 Alpha virt. eigenvalues --    7.17973   7.18924   7.19942   7.20847   9.58290
 Alpha virt. eigenvalues --    9.66899   9.69203   9.72391  10.20498  11.06195
 Alpha virt. eigenvalues --   11.25333  11.30655  11.32695  11.36197  11.48687
 Alpha virt. eigenvalues --   12.90227  12.92465  12.93960  13.12531  13.23635
 Alpha virt. eigenvalues --   13.25690  13.29101  13.33814  13.61838  13.64388
 Alpha virt. eigenvalues --   13.76178  13.82154
          Condensed to atoms (all electrons):
 Mulliken charges:
               1
     1  Pb   1.102549
     2  I   -0.713359
     3  I   -0.736013
     4  O   -0.508472
     5  O   -0.513830
     6  O   -0.486105
     7  O   -0.511588
     8  C    0.187667
     9  H    0.107051
    10  N    0.017687
    11  C   -0.222452
    12  C   -0.166627
    13  H    0.108451
    14  H    0.110524
    15  H    0.106269
    16  H    0.118712
    17  H    0.115698
    18  H    0.114537
    19  C    0.183605
    20  H    0.110720
    21  N    0.003279
    22  C   -0.208854
    23  C   -0.169261
    24  H    0.109004
    25  H    0.104462
    26  H    0.109344
    27  H    0.107876
    28  H    0.118027
    29  H    0.119219
    30  C    0.224611
    31  H    0.098586
    32  N   -0.009975
    33  C   -0.217117
    34  C   -0.168250
    35  H    0.113601
    36  H    0.111081
    37  H    0.109770
    38  H    0.123452
    39  H    0.120683
    40  H    0.128044
    41  C    0.181071
    42  H    0.103463
    43  N   -0.001499
    44  C   -0.207741
    45  C   -0.168679
    46  H    0.108170
    47  H    0.101502
    48  H    0.108226
    49  H    0.105186
    50  H    0.120421
    51  H    0.097274
 Sum of Mulliken charges =  -0.00000
 Mulliken charges with hydrogens summed into heavy atoms:
               1
     1  Pb   1.102549
     2  I   -0.713359
     3  I   -0.736013
     4  O   -0.508472
     5  O   -0.513830
     6  O   -0.486105
     7  O   -0.511588
     8  C    0.294718
    10  N    0.017687
    11  C    0.126496
    12  C    0.158616
    19  C    0.294326
    21  N    0.003279
    22  C    0.136268
    23  C    0.153549
    30  C    0.323197
    32  N   -0.009975
    33  C    0.155063
    34  C    0.166202
    41  C    0.284535
    43  N   -0.001499
    44  C    0.115140
    45  C    0.149218
 Electronic spatial extent (au):  <R**2>=          11242.8813
 Charge=             -0.0000 electrons
 Dipole moment (field-independent basis, Debye):
    X=             12.5241    Y=             11.7455    Z=              1.7073  Tot=             17.2547
 Quadrupole moment (field-independent basis, Debye-Ang):
   XX=           -120.7506   YY=           -146.2957   ZZ=           -181.7414
   XY=            -12.0516   XZ=             33.3959   YZ=            -15.4649
 Traceless Quadrupole moment (field-independent basis, Debye-Ang):
   XX=             28.8452   YY=              3.3002   ZZ=            -32.1455
   XY=            -12.0516   XZ=             33.3959   YZ=            -15.4649
 Octapole moment (field-independent basis, Debye-Ang**2):
  XXX=            -63.1313  YYY=             17.1840  ZZZ=              6.3536  XYY=             65.3883
  XXY=             32.1254  XXZ=            -96.5346  XZZ=             40.8551  YZZ=              9.1238
  YYZ=            102.1195  XYZ=            -58.1877
 Hexadecapole moment (field-independent basis, Debye-Ang**3):
 XXXX=          -6072.6282 YYYY=          -4592.4770 ZZZZ=          -3566.5369 XXXY=           -183.8888
 XXXZ=            -26.6997 YYYX=            120.6963 YYYZ=            116.1377 ZZZX=           -127.2028
 ZZZY=            -39.6093 XXYY=          -1936.9751 XXZZ=          -1552.5987 YYZZ=          -1410.2148
 XXYZ=            -69.5136 YYXZ=            137.0731 ZZXY=             47.5414
 N-N= 1.924320760503D+03 E-N=-6.216710751445D+03  KE= 9.941736268610D+02
 Unable to Open any file for archive entry.
 1\1\GINC-MPCL119\SP\RCAM-B3LYP TD-FC\Gen\C12H28I2N4O4Pb1\EDBA4025\11-N
 ov-2020\0\\# cam-b3lyp/gen pseudo=read TD=NStates=10 Geom=Check Guess=
 Read empiricaldispersion=gd3bj SCRF=(Solvent=n,n-DiMethylFormamide)\\P
 bI2_dmf\\0,1\Pb,0,-0.4733669677,-0.4709054018,-0.3187417025\I,0,0.8033
 420274,-0.3130699754,2.6433460392\I,0,2.1423147026,0.5234829078,-2.038
 4480518\O,0,-1.8286698715,-0.3802236571,-2.4447320148\O,0,-2.763611115
 2,-0.6777743511,0.5204641007\O,0,-0.4812903562,-3.1083079968,-0.298971
 3739\O,0,-1.0976296633,1.8823020928,-0.0647544824\C,0,-3.8295242399,-0
 .5056577711,-0.1258903786\H,0,-4.4240227889,0.433767084,-0.0269413892\
 N,0,-4.3825512086,-1.3968160081,-0.9646701189\C,0,-3.7405691275,-2.671
 9292621,-1.2562543194\C,0,-5.6030393883,-1.0829423821,-1.6918492603\H,
 0,-5.988879651,-0.0997213901,-1.3660024026\H,0,-6.3736361121,-1.856742
 593,-1.5008102667\H,0,-5.4001332816,-1.0489546859,-2.7822049498\H,0,-4
 .4481545032,-3.500331032,-1.0501935061\H,0,-3.4482935902,-2.7036876949
 ,-2.3249365199\H,0,-2.8342781681,-2.7797103564,-0.6348432783\C,0,-1.47
 90781427,-0.1627534733,-3.6329050254\H,0,-1.3489575933,-0.9960323401,-
 4.3635672254\N,0,-1.2491442767,1.0495281016,-4.1672822799\C,0,-1.35460
 28988,2.2609857007,-3.3666143232\C,0,-0.8123376258,1.1914823016,-5.547
 8010871\H,0,-0.7922939061,0.1995513175,-6.0351056064\H,0,0.2051345781,
 1.632280025,-5.584027621\H,0,-1.5053301193,1.8553336061,-6.1032215063\
 H,0,-0.3559038477,2.7334170128,-3.2644762602\H,0,-2.0454013817,2.97636
 28111,-3.8567302064\H,0,-1.7270187084,1.9932988,-2.3634479188\C,0,-0.2
 144619868,2.7419985043,0.2084640173\H,0,0.7996123306,2.4551040243,0.56
 57247347\N,0,-0.4047661181,4.0650038063,0.1051669326\C,0,-1.6770768056
 ,4.6113109901,-0.35048481\C,0,0.6616589435,5.0052157136,0.4205018854\H
 ,0,1.5634218177,4.4501721672,0.7363666925\H,0,0.3459528518,5.683521759
 1,1.238742459\H,0,0.9065388711,5.6170944699,-0.4712808074\H,0,-2.05390
 36915,5.3467987337,0.387670531\H,0,-1.5460496858,5.1225277569,-1.32617
 29433\H,0,-2.3982987776,3.7833591162,-0.4565976602\C,0,0.0255554689,-3
 .832390613,0.5920646799\H,0,-0.6035886406,-4.4839501751,1.2450985133\N
 ,0,1.3419586871,-3.9336274708,0.8620060004\C,0,2.3278851238,-3.1594390
 229,0.1215721914\C,0,1.8207330525,-4.7360994296,1.9770182158\H,0,0.972
 4082449,-5.2763856059,2.4359757357\H,0,2.2901472918,-4.0857557011,2.74
 41000517\H,0,2.5732881293,-5.4715278445,1.6273784185\H,0,2.7415233969,
 -2.352299613,0.7614181509\H,0,3.1524327871,-3.8226641467,-0.2074526756
 \H,0,1.8423159149,-2.7041988288,-0.7592674085\\Version=ES64L-G16RevC.0
 1\State=1-A\HF=-1020.3960165\RMSD=6.717e-09\PG=C01 [X(C12H28I2N4O4Pb1)
 ]\\@
 The archive entry for this job was punched.


 I WISH TO HAVE NO CONNECTION WITH ANY SHIP THAT DOES NOT SAIL FAST,
 FOR I INTEND TO GO IN HARM'S WAY.
     -- JOHN PAUL JONES, USN 1747-1792
 Job cpu time:       0 days 14 hours 38 minutes 32.1 seconds.
 Elapsed time:       0 days  3 hours 39 minutes 39.9 seconds.
 File lengths (MBytes):  RWF=   4949 Int=      0 D2E=      0 Chk=    536 Scr=      1
 Normal termination of Gaussian 16 at Wed Nov 11 22:42:09 2020.
