 Entering Gaussian System, Link 0=g16
 Input=02-PbI2_DMSO_22800502.com
 Output=02-PbI2_DMSO_22800502.log
 Initial command:
 /cm/shared/uniol/software/gaussian/g16.c01/g16/l1.exe "/scratch/22800502_edba4025/Gau-24869.inp" -scrdir="/scratch/22800502_edba4025/"
 Entering Link 1 = /cm/shared/uniol/software/gaussian/g16.c01/g16/l1.exe PID=     24870.
  
 Copyright (c) 1988-2019, Gaussian, Inc.  All Rights Reserved.
  
 This is part of the Gaussian(R) 16 program.  It is based on
 the Gaussian(R) 09 system (copyright 2009, Gaussian, Inc.),
 the Gaussian(R) 03 system (copyright 2003, Gaussian, Inc.),
 the Gaussian(R) 98 system (copyright 1998, Gaussian, Inc.),
 the Gaussian(R) 94 system (copyright 1995, Gaussian, Inc.),
 the Gaussian 92(TM) system (copyright 1992, Gaussian, Inc.),
 the Gaussian 90(TM) system (copyright 1990, Gaussian, Inc.),
 the Gaussian 88(TM) system (copyright 1988, Gaussian, Inc.),
 the Gaussian 86(TM) system (copyright 1986, Carnegie Mellon
 University), and the Gaussian 82(TM) system (copyright 1983,
 Carnegie Mellon University). Gaussian is a federally registered
 trademark of Gaussian, Inc.
  
 This software contains proprietary and confidential information,
 including trade secrets, belonging to Gaussian, Inc.
  
 This software is provided under written license and may be
 used, copied, transmitted, or stored only in accord with that
 written license.
  
 The following legend is applicable only to US Government
 contracts under FAR:
  
                    RESTRICTED RIGHTS LEGEND
  
 Use, reproduction and disclosure by the US Government is
 subject to restrictions as set forth in subparagraphs (a)
 and (c) of the Commercial Computer Software - Restricted
 Rights clause in FAR 52.227-19.
  
 Gaussian, Inc.
 340 Quinnipiac St., Bldg. 40, Wallingford CT 06492
  
  
 ---------------------------------------------------------------
 Warning -- This program may not be used in any manner that
 competes with the business of Gaussian, Inc. or will provide
 assistance to any competitor of Gaussian, Inc.  The licensee
 of this program is prohibited from giving any competitor of
 Gaussian, Inc. access to this program.  By using this program,
 the user acknowledges that Gaussian, Inc. is engaged in the
 business of creating and licensing software in the field of
 computational chemistry and represents and warrants to the
 licensee that it is not a competitor of Gaussian, Inc. and that
 it will not use this program in any manner prohibited above.
 ---------------------------------------------------------------
  

 Cite this work as:
 Gaussian 16, Revision C.01,
 M. J. Frisch, G. W. Trucks, H. B. Schlegel, G. E. Scuseria, 
 M. A. Robb, J. R. Cheeseman, G. Scalmani, V. Barone, 
 G. A. Petersson, H. Nakatsuji, X. Li, M. Caricato, A. V. Marenich, 
 J. Bloino, B. G. Janesko, R. Gomperts, B. Mennucci, H. P. Hratchian, 
 J. V. Ortiz, A. F. Izmaylov, J. L. Sonnenberg, D. Williams-Young, 
 F. Ding, F. Lipparini, F. Egidi, J. Goings, B. Peng, A. Petrone, 
 T. Henderson, D. Ranasinghe, V. G. Zakrzewski, J. Gao, N. Rega, 
 G. Zheng, W. Liang, M. Hada, M. Ehara, K. Toyota, R. Fukuda, 
 J. Hasegawa, M. Ishida, T. Nakajima, Y. Honda, O. Kitao, H. Nakai, 
 T. Vreven, K. Throssell, J. A. Montgomery, Jr., J. E. Peralta, 
 F. Ogliaro, M. J. Bearpark, J. J. Heyd, E. N. Brothers, K. N. Kudin, 
 V. N. Staroverov, T. A. Keith, R. Kobayashi, J. Normand, 
 K. Raghavachari, A. P. Rendell, J. C. Burant, S. S. Iyengar, 
 J. Tomasi, M. Cossi, J. M. Millam, M. Klene, C. Adamo, R. Cammi, 
 J. W. Ochterski, R. L. Martin, K. Morokuma, O. Farkas, 
 J. B. Foresman, and D. J. Fox, Gaussian, Inc., Wallingford CT, 2019.
 
 ******************************************
 Gaussian 16:  ES64L-G16RevC.01  3-Jul-2019
                11-Nov-2020 
 ******************************************
 %oldChk=01-PbI2_DMSO
 %chk=02-PbI2_DMSO
 %mem=16GB
 %NProcShared=4
 Will use up to    4 processors via shared memory.
 Copying data from "01-PbI2_DMSO.chk" to current chk file "02-PbI2_DMSO.chk"
 IOpt=  2 FromEx=T IUOpen= 4 IOptOp= 5 NList=   0 IFRang= 0 IUIn= 4 IUOut= 2.
 ----------------------------------------------------------------------
 # cam-b3lyp/gen pseudo=read TD=NStates=10 Geom=Check Guess=Read empiri
 caldispersion=gd3bj SCRF=(Solvent=DMSO)
 ----------------------------------------------------------------------
 1/29=2,38=1,172=1/1;
 2/12=2,40=1/2;
 3/5=7,11=9,14=-4,16=1,17=8,25=1,30=1,70=2201,72=21,74=-40,116=-2,124=41/1,2,3,8;
 4/5=1/1;
 5/5=2,38=6,53=21/2;
 8/6=1,10=1,108=10/1;
 9/41=10,42=1,70=2/14;
 6/7=2,8=2,9=2,10=2/1;
 99/5=1,9=1/99;
 ---------
 PbI2_DMSO
 ---------
 Structure from the checkpoint file:  "02-PbI2_DMSO.chk"
 Charge =  0 Multiplicity = 1
 Redundant internal coordinates found in file.  (old form).
 Pb,0,0.1066347308,-0.0298591729,0.4355915875
 I,0,-2.4481692402,-0.0868362061,-1.9124710958
 I,0,2.6543900348,-0.7935564934,-1.7358983657
 O,0,-1.5529679859,-0.2122846207,2.1360347182
 S,0,-2.7797895783,0.6599502738,2.6317292859
 C,0,-4.2511249459,-0.1437909634,1.9083057991
 C,0,-2.7960627777,2.16519705,1.603150819
 H,0,-4.3638188553,-1.1205696669,2.4124150507
 H,0,-1.8041628468,2.6405088588,1.7222868504
 H,0,-5.127789278,0.4988945813,2.1172330581
 H,0,-3.6072974927,2.8209797787,1.9728976114
 H,0,-4.0776427237,-0.2628269961,0.8204221416
 H,0,-2.9556855944,1.8666204058,0.5490032703
 O,0,1.3738904178,0.2882313025,2.3899512195
 S,0,2.8753005462,0.7115955209,2.6751026169
 C,0,3.889565011,-0.7230795804,2.1862616803
 C,0,3.3525568895,1.8635211938,1.3439319153
 H,0,3.6185031417,-1.5424319717,2.8765009677
 H,0,2.577087137,2.651403253,1.3530635956
 H,0,4.9543146678,-0.4471235707,2.3125398985
 H,0,4.352465267,2.2676435746,1.5912025398
 H,0,3.6562526442,-0.98234392,1.1337219649
 H,0,3.3526963404,1.3264162317,0.3742833131
 O,0,0.2576122527,2.5752275795,0.5196601094
 S,0,0.2895885298,3.6239916984,-0.6656624992
 C,0,-1.4505687298,3.9279344724,-1.1369709988
 C,0,0.7676469765,2.6897272772,-2.1596909966
 H,0,-1.9315254226,4.4419142437,-0.2852141591
 H,0,1.7807077057,2.2856679887,-1.9782363503
 H,0,-1.4458541894,4.5882216529,-2.0252896991
 H,0,0.7732814579,3.3934467253,-3.0139811567
 H,0,-1.934297324,2.9554663372,-1.3579173442
 H,0,0.0423067395,1.8661231146,-2.3170236264
 O,0,0.3513487915,-2.3090302139,1.1402805384
 S,0,-0.4209386743,-3.6133833794,0.688313395
 C,0,-0.3496214882,-3.6444305102,-1.135383706
 C,0,-2.2001875119,-3.2494803122,0.8774398786
 H,0,0.7218247687,-3.6997426474,-1.4011539123
 H,0,-2.3464864081,-3.0045782952,1.9443425055
 H,0,-0.8893343498,-4.5466299475,-1.4818944881
 H,0,-2.7633765922,-4.1610772345,0.599991525
 H,0,-0.8091923229,-2.7182713446,-1.5356623085
 H,0,-2.4701797186,-2.3900560673,0.2327528512
 Recover connectivity data from disk.
                           ----------------------------
                           !    Current Parameters    !
                           ! (Angstroms and Degrees)  !
 --------------------------                            --------------------------
 ! Name  Definition              Value                                          !
 --------------------------------------------------------------------------------
 ! R1    R(1,4)                  2.3831                                         !
 ! R2    R(1,14)                 2.3509                                         !
 ! R3    R(1,24)                 2.6108                                         !
 ! R4    R(1,34)                 2.3981                                         !
 ! R5    R(2,12)                 3.1867                                         !
 ! R6    R(2,13)                 3.1831                                         !
 ! R7    R(2,32)                 3.1348                                         !
 ! R8    R(2,33)                 3.1906                                         !
 ! R9    R(2,42)                 3.1229                                         !
 ! R10   R(3,22)                 3.0453                                         !
 ! R11   R(3,23)                 3.0716                                         !
 ! R12   R(3,29)                 3.2099                                         !
 ! R13   R(4,5)                  1.5848                                         !
 ! R14   R(5,6)                  1.826                                          !
 ! R15   R(5,7)                  1.8232                                         !
 ! R16   R(6,8)                  1.105                                          !
 ! R17   R(6,10)                 1.1069                                         !
 ! R18   R(6,12)                 1.108                                          !
 ! R19   R(7,9)                  1.1063                                         !
 ! R20   R(7,11)                 1.1067                                         !
 ! R21   R(7,13)                 1.1072                                         !
 ! R22   R(9,24)                 2.3878                                         !
 ! R23   R(13,32)                2.4218                                         !
 ! R24   R(14,15)                1.5858                                         !
 ! R25   R(15,16)                1.8237                                         !
 ! R26   R(15,17)                1.8239                                         !
 ! R27   R(16,18)                1.1051                                         !
 ! R28   R(16,20)                1.1072                                         !
 ! R29   R(16,22)                1.1088                                         !
 ! R30   R(17,19)                1.1055                                         !
 ! R31   R(17,21)                1.1065                                         !
 ! R32   R(17,23)                1.1085                                         !
 ! R33   R(19,24)                2.4658                                         !
 ! R34   R(24,25)                1.583                                          !
 ! R35   R(25,26)                1.8283                                         !
 ! R36   R(25,27)                1.8258                                         !
 ! R37   R(26,28)                1.105                                          !
 ! R38   R(26,30)                1.1068                                         !
 ! R39   R(26,32)                1.1084                                         !
 ! R40   R(27,29)                1.1057                                         !
 ! R41   R(27,31)                1.1068                                         !
 ! R42   R(27,33)                1.1087                                         !
 ! R43   R(34,35)                1.5818                                         !
 ! R44   R(35,36)                1.8254                                         !
 ! R45   R(35,37)                1.8259                                         !
 ! R46   R(36,38)                1.1053                                         !
 ! R47   R(36,40)                1.1069                                         !
 ! R48   R(36,42)                1.1087                                         !
 ! R49   R(37,39)                1.1044                                         !
 ! R50   R(37,41)                1.1069                                         !
 ! R51   R(37,43)                1.1078                                         !
 ! A1    A(4,1,14)              78.028                                          !
 ! A2    A(4,1,24)              95.3752                                         !
 ! A3    A(4,1,34)              77.7977                                         !
 ! A4    A(14,1,24)             78.8749                                         !
 ! A5    A(14,1,34)             80.1716                                         !
 ! A6    A(24,1,34)            158.8983                                         !
 ! A7    A(12,2,13)             44.6996                                         !
 ! A8    A(12,2,32)             89.1811                                         !
 ! A9    A(12,2,33)            122.7976                                         !
 ! A10   A(12,2,42)             96.7969                                         !
 ! A11   A(13,2,33)             81.1914                                         !
 ! A12   A(13,2,42)            120.4959                                         !
 ! A13   A(32,2,33)             45.6096                                         !
 ! A14   A(32,2,42)            135.2651                                         !
 ! A15   A(33,2,42)             96.9732                                         !
 ! A16   A(22,3,23)             47.2063                                         !
 ! A17   A(22,3,29)            102.7179                                         !
 ! A18   A(23,3,29)             56.7471                                         !
 ! A19   A(1,4,5)              136.0673                                         !
 ! A20   A(4,5,6)              104.9272                                         !
 ! A21   A(4,5,7)              106.5497                                         !
 ! A22   A(6,5,7)               97.626                                          !
 ! A23   A(5,6,8)              106.8905                                         !
 ! A24   A(5,6,10)             107.9283                                         !
 ! A25   A(5,6,12)             108.0657                                         !
 ! A26   A(8,6,10)             110.2658                                         !
 ! A27   A(8,6,12)             111.6495                                         !
 ! A28   A(10,6,12)            111.8199                                         !
 ! A29   A(5,7,9)              106.6157                                         !
 ! A30   A(5,7,11)             107.8947                                         !
 ! A31   A(5,7,13)             108.4081                                         !
 ! A32   A(9,7,11)             111.508                                          !
 ! A33   A(9,7,13)             110.3432                                         !
 ! A34   A(11,7,13)            111.8513                                         !
 ! A35   A(7,9,24)             135.0864                                         !
 ! A36   A(2,12,6)             156.3661                                         !
 ! A37   A(2,13,7)             151.492                                          !
 ! A38   A(7,13,32)            124.5851                                         !
 ! A39   A(1,14,15)            134.105                                          !
 ! A40   A(14,15,16)           105.5651                                         !
 ! A41   A(14,15,17)           106.5655                                         !
 ! A42   A(16,15,17)            98.9562                                         !
 ! A43   A(15,16,18)           106.226                                          !
 ! A44   A(15,16,20)           107.9507                                         !
 ! A45   A(15,16,22)           108.7449                                         !
 ! A46   A(18,16,20)           110.4536                                         !
 ! A47   A(18,16,22)           111.5873                                         !
 ! A48   A(20,16,22)           111.6479                                         !
 ! A49   A(15,17,19)           105.1013                                         !
 ! A50   A(15,17,21)           107.6999                                         !
 ! A51   A(15,17,23)           109.4173                                         !
 ! A52   A(19,17,21)           111.8237                                         !
 ! A53   A(19,17,23)           110.6488                                         !
 ! A54   A(21,17,23)           111.8606                                         !
 ! A55   A(17,19,24)           129.4203                                         !
 ! A56   A(3,22,16)            161.6579                                         !
 ! A57   A(3,23,17)            159.286                                          !
 ! A58   A(1,24,9)              89.6313                                         !
 ! A59   A(1,24,19)             95.5148                                         !
 ! A60   A(1,24,25)            129.6516                                         !
 ! A61   A(9,24,19)            129.8775                                         !
 ! A62   A(9,24,25)            112.1144                                         !
 ! A63   A(19,24,25)           102.3337                                         !
 ! A64   A(24,25,26)           106.4953                                         !
 ! A65   A(24,25,27)           106.2004                                         !
 ! A66   A(26,25,27)            97.0848                                         !
 ! A67   A(25,26,28)           107.0315                                         !
 ! A68   A(25,26,30)           107.5783                                         !
 ! A69   A(25,26,32)           108.7185                                         !
 ! A70   A(28,26,30)           110.0608                                         !
 ! A71   A(28,26,32)           111.8272                                         !
 ! A72   A(30,26,32)           111.4243                                         !
 ! A73   A(25,27,29)           107.0146                                         !
 ! A74   A(25,27,31)           107.9134                                         !
 ! A75   A(25,27,33)           108.9623                                         !
 ! A76   A(29,27,31)           110.754                                          !
 ! A77   A(29,27,33)           110.564                                          !
 ! A78   A(31,27,33)           111.476                                          !
 ! A79   A(3,29,27)            127.759                                          !
 ! A80   A(2,32,26)            163.3923                                         !
 ! A81   A(13,32,26)           114.9338                                         !
 ! A82   A(2,33,27)            161.3286                                         !
 ! A83   A(1,34,35)            130.5353                                         !
 ! A84   A(34,35,36)           106.2855                                         !
 ! A85   A(34,35,37)           106.369                                          !
 ! A86   A(36,35,37)            98.3342                                         !
 ! A87   A(35,36,38)           106.198                                          !
 ! A88   A(35,36,40)           107.9124                                         !
 ! A89   A(35,36,42)           109.2873                                         !
 ! A90   A(38,36,40)           110.8904                                         !
 ! A91   A(38,36,42)           110.9045                                         !
 ! A92   A(40,36,42)           111.4524                                         !
 ! A93   A(35,37,39)           105.8635                                         !
 ! A94   A(35,37,41)           107.8007                                         !
 ! A95   A(35,37,43)           109.3806                                         !
 ! A96   A(39,37,41)           110.9395                                         !
 ! A97   A(39,37,43)           110.9709                                         !
 ! A98   A(41,37,43)           111.6578                                         !
 ! A99   A(2,42,36)            164.7963                                         !
 ! D1    D(14,1,4,5)           110.0042                                         !
 ! D2    D(24,1,4,5)            32.5995                                         !
 ! D3    D(34,1,4,5)          -167.6198                                         !
 ! D4    D(4,1,14,15)         -172.1397                                         !
 ! D5    D(24,1,14,15)         -74.1328                                         !
 ! D6    D(34,1,14,15)         108.3784                                         !
 ! D7    D(4,1,24,9)           -15.7889                                         !
 ! D8    D(4,1,24,19)          114.266                                          !
 ! D9    D(4,1,24,25)         -134.7111                                         !
 ! D10   D(14,1,24,9)          -92.4422                                         !
 ! D11   D(14,1,24,19)          37.6127                                         !
 ! D12   D(14,1,24,25)         148.6356                                         !
 ! D13   D(34,1,24,9)          -85.5551                                         !
 ! D14   D(34,1,24,19)          44.4997                                         !
 ! D15   D(34,1,24,25)         155.5226                                         !
 ! D16   D(4,1,34,35)           85.2211                                         !
 ! D17   D(14,1,34,35)         164.9721                                         !
 ! D18   D(24,1,34,35)         158.114                                          !
 ! D19   D(13,2,12,6)          -45.1355                                         !
 ! D20   D(32,2,12,6)          -53.3671                                         !
 ! D21   D(33,2,12,6)          -20.6663                                         !
 ! D22   D(42,2,12,6)           82.1752                                         !
 ! D23   D(12,2,13,7)           72.0813                                         !
 ! D24   D(33,2,13,7)          -87.2887                                         !
 ! D25   D(42,2,13,7)            5.6526                                         !
 ! D26   D(12,2,32,26)         113.5879                                         !
 ! D27   D(33,2,32,26)         -26.954                                          !
 ! D28   D(42,2,32,26)          14.7441                                         !
 ! D29   D(12,2,33,27)         -15.5123                                         !
 ! D30   D(13,2,33,27)           1.6347                                         !
 ! D31   D(32,2,33,27)          33.5966                                         !
 ! D32   D(42,2,33,27)        -118.26                                           !
 ! D33   D(12,2,42,36)          -7.7856                                         !
 ! D34   D(13,2,42,36)          32.7005                                         !
 ! D35   D(32,2,42,36)          87.9446                                         !
 ! D36   D(33,2,42,36)         116.5576                                         !
 ! D37   D(23,3,22,16)          20.362                                          !
 ! D38   D(29,3,22,16)           7.52                                           !
 ! D39   D(22,3,23,17)         -52.2877                                         !
 ! D40   D(29,3,23,17)         112.686                                          !
 ! D41   D(22,3,29,27)        -116.4847                                         !
 ! D42   D(23,3,29,27)        -127.7313                                         !
 ! D43   D(1,4,5,6)            100.8894                                         !
 ! D44   D(1,4,5,7)             -1.9661                                         !
 ! D45   D(4,5,6,8)             68.4424                                         !
 ! D46   D(4,5,6,10)          -172.9567                                         !
 ! D47   D(4,5,6,12)           -51.8622                                         !
 ! D48   D(7,5,6,8)            177.9005                                         !
 ! D49   D(7,5,6,10)           -63.4986                                         !
 ! D50   D(7,5,6,12)            57.5959                                         !
 ! D51   D(4,5,7,9)            -56.6212                                         !
 ! D52   D(4,5,7,11)          -176.5162                                         !
 ! D53   D(4,5,7,13)            62.1734                                         !
 ! D54   D(6,5,7,9)           -164.7351                                         !
 ! D55   D(6,5,7,11)            75.3699                                         !
 ! D56   D(6,5,7,13)           -45.9405                                         !
 ! D57   D(5,6,12,2)             2.8216                                         !
 ! D58   D(8,6,12,2)          -114.4543                                         !
 ! D59   D(10,6,12,2)          121.4661                                         !
 ! D60   D(5,7,9,24)            94.3542                                         !
 ! D61   D(11,7,9,24)         -148.1132                                         !
 ! D62   D(13,7,9,24)          -23.169                                          !
 ! D63   D(5,7,13,2)           -39.5222                                         !
 ! D64   D(5,7,13,32)         -144.0543                                         !
 ! D65   D(9,7,13,2)            76.8893                                         !
 ! D66   D(9,7,13,32)          -27.6427                                         !
 ! D67   D(11,7,13,2)         -158.3624                                         !
 ! D68   D(11,7,13,32)          97.1055                                         !
 ! D69   D(7,9,24,1)           -47.2289                                         !
 ! D70   D(7,9,24,19)         -144.1127                                         !
 ! D71   D(7,9,24,25)           86.1003                                         !
 ! D72   D(7,13,32,26)         -12.585                                          !
 ! D73   D(1,14,15,16)         -71.784                                          !
 ! D74   D(1,14,15,17)          32.7799                                         !
 ! D75   D(14,15,16,18)        -64.8677                                         !
 ! D76   D(14,15,16,20)        176.6524                                         !
 ! D77   D(14,15,16,22)         55.3578                                         !
 ! D78   D(17,15,16,18)       -174.959                                          !
 ! D79   D(17,15,16,20)         66.5611                                         !
 ! D80   D(17,15,16,22)        -54.7335                                         !
 ! D81   D(14,15,17,19)         53.7921                                         !
 ! D82   D(14,15,17,21)        173.1524                                         !
 ! D83   D(14,15,17,23)        -65.0501                                         !
 ! D84   D(16,15,17,19)        163.0784                                         !
 ! D85   D(16,15,17,21)        -77.5613                                         !
 ! D86   D(16,15,17,23)         44.2362                                         !
 ! D87   D(15,16,22,3)          17.5158                                         !
 ! D88   D(18,16,22,3)         134.3629                                         !
 ! D89   D(20,16,22,3)        -101.4867                                         !
 ! D90   D(15,17,19,24)        -75.685                                          !
 ! D91   D(21,17,19,24)        167.7459                                         !
 ! D92   D(23,17,19,24)         42.3277                                         !
 ! D93   D(15,17,23,3)          23.9168                                         !
 ! D94   D(19,17,23,3)         -91.4264                                         !
 ! D95   D(21,17,23,3)         143.1762                                         !
 ! D96   D(17,19,24,1)          17.8688                                         !
 ! D97   D(17,19,24,9)         112.0115                                         !
 ! D98   D(17,19,24,25)       -114.7674                                         !
 ! D99   D(1,24,25,26)          83.8846                                         !
 ! D100  D(1,24,25,27)         -18.8235                                         !
 ! D101  D(9,24,25,26)         -25.2482                                         !
 ! D102  D(9,24,25,27)        -127.9563                                         !
 ! D103  D(19,24,25,26)       -168.1174                                         !
 ! D104  D(19,24,25,27)         89.1745                                         !
 ! D105  D(24,25,26,28)         66.8129                                         !
 ! D106  D(24,25,26,30)       -174.934                                          !
 ! D107  D(24,25,26,32)        -54.143                                          !
 ! D108  D(27,25,26,28)        176.0826                                         !
 ! D109  D(27,25,26,30)        -65.6642                                         !
 ! D110  D(27,25,26,32)         55.1267                                         !
 ! D111  D(24,25,27,29)        -62.2095                                         !
 ! D112  D(24,25,27,31)        178.5567                                         !
 ! D113  D(24,25,27,33)         57.3647                                         !
 ! D114  D(26,25,27,29)       -171.7251                                         !
 ! D115  D(26,25,27,31)         69.0412                                         !
 ! D116  D(26,25,27,33)        -52.1508                                         !
 ! D117  D(25,26,32,2)          -9.1628                                         !
 ! D118  D(25,26,32,13)         89.2263                                         !
 ! D119  D(28,26,32,2)        -127.1225                                         !
 ! D120  D(28,26,32,13)        -28.7335                                         !
 ! D121  D(30,26,32,2)         109.2292                                         !
 ! D122  D(30,26,32,13)       -152.3818                                         !
 ! D123  D(25,27,29,3)         115.1407                                         !
 ! D124  D(31,27,29,3)        -127.4761                                         !
 ! D125  D(33,27,29,3)          -3.3978                                         !
 ! D126  D(25,27,33,2)           0.0504                                         !
 ! D127  D(29,27,33,2)         117.3964                                         !
 ! D128  D(31,27,33,2)        -118.9406                                         !
 ! D129  D(1,34,35,36)          51.3444                                         !
 ! D130  D(1,34,35,37)         -52.7309                                         !
 ! D131  D(34,35,36,38)         61.3791                                         !
 ! D132  D(34,35,36,40)       -179.6653                                         !
 ! D133  D(34,35,36,42)        -58.3111                                         !
 ! D134  D(37,35,36,38)        171.2276                                         !
 ! D135  D(37,35,36,40)        -69.8168                                         !
 ! D136  D(37,35,36,42)         51.5374                                         !
 ! D137  D(34,35,37,39)        -59.2956                                         !
 ! D138  D(34,35,37,41)       -178.076                                          !
 ! D139  D(34,35,37,43)         60.3331                                         !
 ! D140  D(36,35,37,39)       -169.0762                                         !
 ! D141  D(36,35,37,41)         72.1434                                         !
 ! D142  D(36,35,37,43)        -49.4475                                         !
 ! D143  D(35,36,42,2)         -19.7092                                         !
 ! D144  D(38,36,42,2)        -136.455                                          !
 ! D145  D(40,36,42,2)          99.4749                                         !
 --------------------------------------------------------------------------------
                          Input orientation:                          
 ---------------------------------------------------------------------
 Center     Atomic      Atomic             Coordinates (Angstroms)
 Number     Number       Type             X           Y           Z
 ---------------------------------------------------------------------
      1         82           0        0.106635   -0.029859    0.435592
      2         53           0       -2.448169   -0.086836   -1.912471
      3         53           0        2.654390   -0.793556   -1.735898
      4          8           0       -1.552968   -0.212285    2.136035
      5         16           0       -2.779790    0.659950    2.631729
      6          6           0       -4.251125   -0.143791    1.908306
      7          6           0       -2.796063    2.165197    1.603151
      8          1           0       -4.363819   -1.120570    2.412415
      9          1           0       -1.804163    2.640509    1.722287
     10          1           0       -5.127789    0.498895    2.117233
     11          1           0       -3.607297    2.820980    1.972898
     12          1           0       -4.077643   -0.262827    0.820422
     13          1           0       -2.955686    1.866620    0.549003
     14          8           0        1.373890    0.288231    2.389951
     15         16           0        2.875301    0.711596    2.675103
     16          6           0        3.889565   -0.723080    2.186262
     17          6           0        3.352557    1.863521    1.343932
     18          1           0        3.618503   -1.542432    2.876501
     19          1           0        2.577087    2.651403    1.353064
     20          1           0        4.954315   -0.447124    2.312540
     21          1           0        4.352465    2.267644    1.591203
     22          1           0        3.656253   -0.982344    1.133722
     23          1           0        3.352696    1.326416    0.374283
     24          8           0        0.257612    2.575228    0.519660
     25         16           0        0.289589    3.623992   -0.665662
     26          6           0       -1.450569    3.927934   -1.136971
     27          6           0        0.767647    2.689727   -2.159691
     28          1           0       -1.931525    4.441914   -0.285214
     29          1           0        1.780708    2.285668   -1.978236
     30          1           0       -1.445854    4.588222   -2.025290
     31          1           0        0.773281    3.393447   -3.013981
     32          1           0       -1.934297    2.955466   -1.357917
     33          1           0        0.042307    1.866123   -2.317024
     34          8           0        0.351349   -2.309030    1.140281
     35         16           0       -0.420939   -3.613383    0.688313
     36          6           0       -0.349621   -3.644431   -1.135384
     37          6           0       -2.200188   -3.249480    0.877440
     38          1           0        0.721825   -3.699743   -1.401154
     39          1           0       -2.346486   -3.004578    1.944343
     40          1           0       -0.889334   -4.546630   -1.481894
     41          1           0       -2.763377   -4.161077    0.599992
     42          1           0       -0.809192   -2.718271   -1.535662
     43          1           0       -2.470180   -2.390056    0.232753
 ---------------------------------------------------------------------
                    Distance matrix (angstroms):
                    1          2          3          4          5
     1  Pb   0.000000
     2  I    3.470399   0.000000
     3  I    3.433607   5.154294   0.000000
     4  O    2.383079   4.148195   5.747313   0.000000
     5  S    3.691924   4.617079   7.121739   1.584802   0.000000
     6  C    4.601297   4.225190   7.835085   2.708616   1.825971
     7  C    3.821926   4.189544   7.043501   2.735264   1.823186
     8  H    5.008237   4.841793   8.159087   2.966859   2.393219
     9  H    3.526698   4.589621   6.605342   2.893565   2.387791
    10  H    5.523286   4.874624   8.779486   3.644925   2.409097
    11  H    4.927868   4.989495   8.125809   3.667094   2.406009
    12  H    4.208390   3.186669   7.220576   2.847345   2.411799
    13  H    3.603790   3.183146   6.615910   2.967850   2.413450
    14  O    2.350881   5.767118   4.453378   2.980183   4.177283
    15  S    3.637399   7.072670   4.665963   4.555624   5.655492
    16  C    4.225632   7.574384   4.112659   5.466681   6.825797
    17  C    3.866003   6.932278   4.127088   5.385218   6.380649
    18  H    4.536423   7.864956   4.771222   5.390890   6.771156
    19  H    3.759529   6.588996   4.627679   5.086365   5.856364
    20  H    5.215079   8.530961   4.668996   6.513911   7.819454
    21  H    4.963973   8.004245   4.829493   6.428143   7.384879
    22  H    3.740909   6.880784   3.045339   5.360373   6.809097
    23  H    3.518545   6.393479   3.071609   5.434787   6.568685
    24  O    2.610812   4.508115   4.709649   3.696091   4.165925
    25  S    3.820584   4.777038   5.123712   5.095247   5.392533
    26  C    4.534530   4.208918   6.285052   5.278680   5.162330
    27  C    3.816881   4.255807   3.984051   5.679805   6.297778
    28  H    4.966932   4.839883   7.109519   5.259973   4.850914
    29  H    3.740421   4.849382   3.209933   5.854946   6.685273
    30  H    5.458281   4.782628   6.771948   6.353972   6.236868
    31  H    4.905404   4.868618   4.764773   6.703387   7.209047
    32  H    4.036613   3.134836   5.937516   4.731570   4.679907
    33  H    3.343019   3.190640   3.772874   5.166663   5.823164
    34  O    2.398143   4.700504   3.984101   3.002381   4.565445
    35  S    3.630957   4.828072   4.825544   3.865858   5.253801
    36  C    3.967526   4.202885   4.184756   4.891814   6.214865
    37  C    3.985300   4.224620   6.035563   3.350748   4.324016
    38  H    4.149715   4.833570   3.506106   5.463401   6.894373
    39  H    4.140421   4.837207   6.591021   2.909179   3.753535
    40  H    5.006988   4.743956   5.167984   5.684749   6.899580
    41  H    5.032987   4.797006   6.793289   4.406527   5.231686
    42  H    3.457187   3.122928   3.967496   4.507164   5.715137
    43  H    3.500235   3.147585   5.717133   3.034213   3.892748
                    6          7          8          9         10
     6  C    0.000000
     7  C    2.746225   0.000000
     8  H    1.104954   3.729481   0.000000
     9  H    3.711408   1.106336   4.601503   0.000000
    10  H    1.106904   2.911665   1.814786   3.973536   0.000000
    11  H    3.034560   1.106736   4.037488   1.829391   2.779354
    12  H    1.108042   2.854893   1.830863   3.796239   1.834324
    13  H    2.750931   1.107183   3.791892   1.817004   3.007998
    14  O    5.662104   4.640104   5.908175   4.009864   6.510806
    15  S    7.218421   5.952008   7.471993   5.150334   8.025329
    16  C    8.166007   7.306147   8.266044   6.629294   9.100036
    17  C    7.884402   6.161471   8.341997   5.228635   8.624179
    18  H    8.051375   7.517619   8.006923   6.945107   9.013386
    19  H    7.399046   5.400896   7.970331   4.396794   8.036316
    20  H    9.219302   8.209495   9.342972   7.453784  10.128273
    21  H    8.940768   7.149272   9.387651   6.169302   9.658178
    22  H    7.989354   7.194425   8.122543   6.579332   8.962185
    23  H    7.895114   6.326208   8.347834   5.489731   8.697201
    24  O    5.445191   3.266039   6.212815   2.387779   5.988819
    25  S    6.437358   4.098395   7.323908   3.324656   6.845343
    26  C    5.804806   3.525034   6.824409   3.155606   5.989166
    27  C    7.054466   5.209044   7.858400   4.656864   7.605787
    28  H    5.587554   3.081686   6.643379   2.700249   5.615626
    29  H    7.575651   5.812717   8.284653   5.164405   8.227561
    30  H    6.762741   4.567241   7.797310   4.238667   6.887651
    31  H    7.873095   5.963784   8.729944   5.444481   8.338491
    32  H    5.063724   3.183566   6.060697   3.098998   5.320696
    33  H    6.350332   4.849078   7.120524   4.508343   6.947074
    34  O    5.144015   5.489914   5.026288   5.429816   6.233765
    35  S    5.310064   6.314280   4.973223   6.487956   6.411481
    36  C    6.061374   6.872876   5.922038   7.055667   7.111789
    37  C    3.861908   5.495494   3.401428   5.963436   4.915105
    38  H    6.951802   7.469866   6.859972   7.505683   8.014087
    39  H    3.437012   5.200491   2.799680   5.675424   4.476590
    40  H    6.494620   7.629006   6.243042   7.922036   7.508364
    41  H    4.479249   6.405400   3.884711   6.959972   5.441306
    42  H    5.507791   6.135802   5.547552   6.349860   6.507233
    43  H    3.320384   4.768073   3.154107   5.288561   4.354330
                   11         12         13         14         15
    11  H    0.000000
    12  H    3.325551   0.000000
    13  H    1.833814   2.422190   0.000000
    14  O    5.603658   5.699675   4.962422   0.000000
    15  S    6.853223   7.261733   6.313064   1.585806   0.000000
    16  C    8.295109   8.096527   7.499641   2.718981   1.823730
    17  C    7.053503   7.746179   6.358132   2.736935   1.823930
    18  H    8.489291   8.068179   7.762657   2.937064   2.381922
    19  H    6.217682   7.284358   5.645704   2.847350   2.366342
    20  H    9.170445   9.156235   8.428023   3.655978   2.407568
    21  H    7.988097   8.835389   7.392974   3.664421   2.403776
    22  H    8.241884   7.773609   7.223311   2.898560   2.419746
    23  H    7.295944   7.611483   6.333880   3.009388   2.428926
    24  O    4.136402   5.190322   3.290633   3.158230   3.869283
    25  S    4.774154   6.032289   3.885302   4.651858   5.131147
    26  C    3.943109   5.319341   3.058905   5.802085   6.602264
    27  C    6.019606   6.409016   4.677364   5.180150   5.632978
    28  H    3.245722   5.287990   2.894298   5.944356   6.766412
    29  H    6.702881   6.974782   5.384790   4.820406   5.032832
    30  H    4.876524   6.209433   4.039021   6.777553   7.469558
    31  H    6.662293   7.183485   5.378778   6.261436   6.631477
    32  H    3.729791   4.438074   2.421810   5.666107   6.665766
    33  H    5.712686   5.599105   4.147538   5.139890   5.854922
    34  O    6.533080   4.889297   5.359304   3.058273   4.224949
    35  S    7.294112   4.961367   6.039436   4.619478   5.789470
    36  C    7.878794   5.399867   6.324588   5.555566   6.625322
    37  C    6.326964   3.528199   5.182001   5.251393   6.684481
    38  H    8.523224   6.307351   6.950654   5.540903   6.380692
    39  H    5.960502   3.431807   5.103594   4.988223   6.450660
    40  H    8.579311   5.815233   7.037339   6.594639   7.687785
    41  H    7.165626   4.119738   6.030980   6.333820   7.735871
    42  H    7.129003   4.718380   5.474897   5.405123   6.562775
    43  H    5.610351   2.730274   4.295931   5.157868   6.645260
                   16         17         18         19         20
    16  C    0.000000
    17  C    2.772797   0.000000
    18  H    1.105099   3.744331   0.000000
    19  H    3.715367   1.105529   4.581884   0.000000
    20  H    1.107154   2.973703   1.817181   4.021526   0.000000
    21  H    3.084282   1.106469   4.087465   1.831925   2.872718
    22  H    1.108825   2.869733   1.830957   3.796950   1.833313
    23  H    2.787818   1.108467   3.816024   1.820761   3.076924
    24  O    5.181455   3.280950   5.814242   2.465832   5.865837
    25  S    6.323791   4.064419   7.093696   3.202161   6.870469
    26  C    7.822585   5.786769   8.469259   4.904265   8.488980
    27  C    6.346726   4.431676   7.169504   3.951580   6.882505
    28  H    8.165197   6.101127   8.752809   5.120300   8.835486
    29  H    5.553637   3.699422   6.449831   3.444640   5.995890
    30  H    8.626342   6.465323   9.341316   5.598981   9.226789
    31  H    7.327997   5.290061   8.194874   4.782826   7.784783
    32  H    7.746630   6.036817   8.306322   5.272045   8.514861
    33  H    6.464128   4.935621   7.167993   4.528942   7.135250
    34  O    4.016004   5.143822   3.778417   5.441056   5.101782
    35  S    5.401680   6.683232   5.039255   6.976934   6.446446
    36  C    6.126852   7.084537   6.021597   7.375332   7.088208
    37  C    6.721667   7.562630   6.384937   7.607168   7.816624
    38  H    5.636014   6.738409   5.598488   7.166922   6.502694
    39  H    6.644705   7.519174   6.211915   7.522055   7.744536
    40  H    7.135320   8.189565   6.952799   8.477308   8.084053
    41  H    7.654914   8.617069   7.264171   8.688933   8.734359
    42  H    6.317581   6.826789   6.360367   6.974599   7.292790
    43  H    6.858670   7.296019   6.691781   7.221240   7.951328
                   21         22         23         24         25
    21  H    0.000000
    22  H    3.355059   0.000000
    23  H    1.834759   2.449340   0.000000
    24  O    4.243894   4.958240   3.340690   0.000000
    25  S    4.841496   5.982519   3.967741   1.583009   0.000000
    26  C    6.623798   7.439523   5.667728   2.737175   1.828294
    27  C    5.205601   5.716180   3.868090   2.729866   1.825791
    28  H    6.909192   7.915758   6.169624   2.987418   2.397308
    29  H    4.399449   4.886907   2.987584   2.939924   2.395286
    30  H    7.216967   8.187921   6.278807   3.664794   2.406260
    31  H    5.940177   6.683001   4.733533   3.663607   2.408674
    32  H    6.978094   7.277971   5.797122   2.911073   2.423182
    33  H    5.832059   5.751697   4.300360   2.931887   2.424509
    34  O    6.095753   3.561254   4.776119   4.924422   6.202096
    35  S    7.628045   4.872807   6.224191   6.227984   7.397141
    36  C    8.030972   5.318136   6.379308   6.464677   7.311579
    37  C    8.595660   6.285179   7.212941   6.332141   7.471597
    38  H    7.599042   4.735052   5.944404   6.578774   7.373253
    39  H    8.532115   6.385876   7.328252   6.320228   7.595983
    40  H    9.129880   6.340974   7.478830   7.486158   8.295490
    41  H    9.640859   7.183373   8.220090   7.383131   8.457528
    42  H    7.828112   5.484456   6.109722   5.777850   6.495269
    43  H    8.371860   6.350321   6.909275   5.672496   6.677742
                   26         27         28         29         30
    26  C    0.000000
    27  C    2.738539   0.000000
    28  H    1.104982   3.724158   0.000000
    29  H    3.721010   1.105659   4.614802   0.000000
    30  H    1.106848   2.919235   1.812497   3.964173   0.000000
    31  H    2.958776   1.106826   3.982642   1.820673   2.707316
    32  H    1.108379   2.830894   1.833092   3.825531   1.830260
    33  H    2.805756   1.108691   3.828703   1.820119   3.116015
    34  O    6.879863   6.004223   7.267654   5.734062   7.798901
    35  S    7.827086   7.018053   8.253330   6.837876   8.699449
    36  C    7.651980   6.512991   8.283368   6.357261   8.352857
    37  C    7.492334   7.301123   7.783411   7.391906   8.391926
    38  H    7.935398   6.434501   8.635518   6.105686   8.589455
    39  H    7.639168   7.678934   7.784174   7.772198   8.615087
    40  H    8.500129   7.454520   9.127548   7.352263   9.167906
    41  H    8.376910   8.186422   8.688327   8.297981   9.229204
    42  H    6.688974   5.667652   7.354693   5.651802   7.350504
    43  H    6.544674   6.481629   6.872718   6.694842   7.405698
                   31         32         33         34         35
    31  H    0.000000
    32  H    3.203960   0.000000
    33  H    1.831063   2.452247   0.000000
    34  O    7.067826   6.259401   5.429582   0.000000
    35  S    8.014288   7.044651   6.266709   1.581784   0.000000
    36  C    7.370329   6.791123   5.649432   2.730073   1.825355
    37  C    8.253069   6.600673   6.434499   2.732008   1.825903
    38  H    7.274421   7.165798   5.681498   2.920654   2.383116
    39  H    8.674828   6.826196   6.898500   2.899762   2.378232
    40  H    8.255689   7.575537   6.533666   3.663598   2.408349
    41  H    9.090631   7.427380   7.260026   3.663810   2.407236
    42  H    6.484038   5.786947   4.727816   2.945336   2.428587
    43  H    7.383104   5.602857   5.561386   2.964995   2.429702
                   36         37         38         39         40
    36  C    0.000000
    37  C    2.762615   0.000000
    38  H    1.105301   3.732678   0.000000
    39  H    3.725801   1.104383   4.592400   0.000000
    40  H    1.106943   2.994560   1.821969   4.029927   0.000000
    41  H    3.017394   1.106873   4.045249   1.821693   2.827532
    42  H    1.108693   2.835509   1.823566   3.815190   1.830904
    43  H    2.818159   1.107758   3.817568   1.822766   3.176460
                   41         42         43
    41  H    0.000000
    42  H    3.234431   0.000000
    43  H    1.832306   2.448244   0.000000
 Stoichiometry    C8H24I2O4PbS4
 Framework group  C1[X(C8H24I2O4PbS4)]
 Deg. of freedom   123
 Full point group                 C1      NOp   1
 Largest Abelian subgroup         C1      NOp   1
 Largest concise Abelian subgroup C1      NOp   1
                         Standard orientation:                         
 ---------------------------------------------------------------------
 Center     Atomic      Atomic             Coordinates (Angstroms)
 Number     Number       Type             X           Y           Z
 ---------------------------------------------------------------------
      1         82           0        0.125738   -0.011057    0.423469
      2         53           0       -2.417708   -0.308697   -1.918744
      3         53           0        2.717167   -0.708321   -1.718487
      4          8           0       -1.522999   -0.223952    2.130927
      5         16           0       -2.799498    0.593650    2.593176
      6          6           0       -4.220186   -0.322319    1.902658
      7          6           0       -2.902171    2.054206    1.506787
      8          1           0       -4.276349   -1.283663    2.444494
      9          1           0       -1.939951    2.591001    1.606610
     10          1           0       -5.133258    0.275626    2.087041
     11          1           0       -3.750941    2.675300    1.851310
     12          1           0       -4.038348   -0.473240    0.820108
     13          1           0       -3.042420    1.706016    0.465179
     14          8           0        1.369182    0.456416    2.363045
     15         16           0        2.842819    0.977656    2.630411
     16          6           0        3.940006   -0.413164    2.197061
     17          6           0        3.253964    2.102860    1.255057
     18          1           0        3.716251   -1.219492    2.918872
     19          1           0        2.433733    2.843789    1.234070
     20          1           0        4.986598   -0.070693    2.311729
     21          1           0        4.228142    2.574095    1.485683
     22          1           0        3.723892   -0.726387    1.155582
     23          1           0        3.287021    1.529364    0.307054
     24          8           0        0.123981    2.599695    0.405944
     25         16           0        0.096414    3.601621   -0.819333
     26          6           0       -1.657805    3.784683   -1.300857
     27          6           0        0.630613    2.639500   -2.276202
     28          1           0       -2.169320    4.302398   -0.469408
     29          1           0        1.665285    2.302759   -2.079888
     30          1           0       -1.690330    4.409052   -2.214212
     31          1           0        0.596412    3.308572   -3.157246
     32          1           0       -2.083491    2.777725   -1.483426
     33          1           0       -0.045077    1.769380   -2.400826
     34          8           0        0.502223   -2.242864    1.216179
     35         16           0       -0.191761   -3.606755    0.815895
     36          6           0       -0.115915   -3.704509   -1.005262
     37          6           0       -1.989538   -3.340472    0.991999
     38          1           0        0.957345   -3.707350   -1.269453
     39          1           0       -2.151567   -3.063222    2.048664
     40          1           0       -0.601404   -4.649533   -1.315995
     41          1           0       -2.498021   -4.293555    0.750659
     42          1           0       -0.628238   -2.823095   -1.440961
     43          1           0       -2.308324   -2.524048    0.314537
 ---------------------------------------------------------------------
 Rotational constants (GHZ):           0.1312184           0.1003958           0.0973368
 General basis read from cards:  (5D, 7F)
 ======================================================================================================
                                       Pseudopotential Parameters
 ======================================================================================================
  Center     Atomic      Valence      Angular      Power
  Number     Number     Electrons     Momentum     of R      Exponent        Coefficient   SO-Coeffient
 ======================================================================================================
    1         82            4
                                      G and up 
                                                     0      376.5803786       -0.17896050    0.00000000
                                                     1       86.4840014      -54.39723370    0.00000000
                                                     2       26.6784276     -199.70617590    0.00000000
                                                     2        9.4261986      -79.12239410    0.00000000
                                                     2        2.7101719      -24.98690200    0.00000000
                                                     2        0.8792031       -4.43979390    0.00000000
                                      S - G
                                                     0      132.4248796        2.81153860    0.00000000
                                                     1       47.2376044       65.03672050    0.00000000
                                                     2       17.6312727      212.78685450    0.00000000
                                                     2        5.4744712       72.10531750    0.00000000
                                                     2        1.2634856       33.01409400    0.00000000
                                                     2        0.7651447       -5.77084610    0.00000000
                                      P - G
                                                     0       67.8966454        4.87549110    0.00000000
                                                     1       24.9898225       63.91481020    0.00000000
                                                     2       10.7052939      148.10643580    0.00000000
                                                     2        3.2792568       47.31063010    0.00000000
                                                     2        0.8452522       21.03067020    0.00000000
                                                     2        0.6416245       -7.09307720    0.00000000
                                      D - G
                                                     0       68.8336005        3.21613880    0.00000000
                                                     1       24.2815874       55.73860860    0.00000000
                                                     2        9.4532762      121.41683510    0.00000000
                                                     2        2.4788185       19.34560640    0.00000000
                                                     2        2.4789161       15.36751680    0.00000000
                                                     2        0.5551738        6.12987240    0.00000000
                                      F - G
                                                     0      128.1021322        4.13536820    0.00000000
                                                     1       54.8029154       67.51284460    0.00000000
                                                     2       24.5529308      258.73731070    0.00000000
                                                     2        8.1144792      113.24782640    0.00000000
                                                     2        1.6931290       34.16802010    0.00000000
                                                     2        0.7670500       -6.55319560    0.00000000
    2         53            7
                                      F and up 
                                                     0        1.0715702       -0.07476210    0.00000000
                                                     1       44.1936028      -30.08112240    0.00000000
                                                     2       12.9367609      -75.37227210    0.00000000
                                                     2        3.1956412      -22.05637580    0.00000000
                                                     2        0.8589806       -1.69795850    0.00000000
                                      S - F
                                                     0      127.9202670        2.93800360    0.00000000
                                                     1       78.6211465       41.24712670    0.00000000
                                                     2       36.5146237      287.86800950    0.00000000
                                                     2        9.9065681      114.37585060    0.00000000
                                                     2        1.9420086       37.65477140    0.00000000
                                      P - F
                                                     0       13.0035304        2.22226300    0.00000000
                                                     1       76.0331404       39.40908310    0.00000000
                                                     2       24.1961684      177.40750020    0.00000000
                                                     2        6.4053433       77.98894620    0.00000000
                                                     2        1.5851786       25.75476410    0.00000000
                                      D - F
                                                     0       40.4278108        7.05243600    0.00000000
                                                     1       28.9084375       33.30416350    0.00000000
                                                     2       15.6268936      186.94538750    0.00000000
                                                     2        4.1442856       71.96883610    0.00000000
                                                     2        0.9377235        9.36306570    0.00000000
    3         53            7
                                      F and up 
                                                     0        1.0715702       -0.07476210    0.00000000
                                                     1       44.1936028      -30.08112240    0.00000000
                                                     2       12.9367609      -75.37227210    0.00000000
                                                     2        3.1956412      -22.05637580    0.00000000
                                                     2        0.8589806       -1.69795850    0.00000000
                                      S - F
                                                     0      127.9202670        2.93800360    0.00000000
                                                     1       78.6211465       41.24712670    0.00000000
                                                     2       36.5146237      287.86800950    0.00000000
                                                     2        9.9065681      114.37585060    0.00000000
                                                     2        1.9420086       37.65477140    0.00000000
                                      P - F
                                                     0       13.0035304        2.22226300    0.00000000
                                                     1       76.0331404       39.40908310    0.00000000
                                                     2       24.1961684      177.40750020    0.00000000
                                                     2        6.4053433       77.98894620    0.00000000
                                                     2        1.5851786       25.75476410    0.00000000
                                      D - F
                                                     0       40.4278108        7.05243600    0.00000000
                                                     1       28.9084375       33.30416350    0.00000000
                                                     2       15.6268936      186.94538750    0.00000000
                                                     2        4.1442856       71.96883610    0.00000000
                                                     2        0.9377235        9.36306570    0.00000000
    4          8
                                   No pseudopotential on this center.
    5         16
                                   No pseudopotential on this center.
    6          6
                                   No pseudopotential on this center.
    7          6
                                   No pseudopotential on this center.
    8          1
                                   No pseudopotential on this center.
    9          1
                                   No pseudopotential on this center.
   10          1
                                   No pseudopotential on this center.
   11          1
                                   No pseudopotential on this center.
   12          1
                                   No pseudopotential on this center.
   13          1
                                   No pseudopotential on this center.
   14          8
                                   No pseudopotential on this center.
   15         16
                                   No pseudopotential on this center.
   16          6
                                   No pseudopotential on this center.
   17          6
                                   No pseudopotential on this center.
   18          1
                                   No pseudopotential on this center.
   19          1
                                   No pseudopotential on this center.
   20          1
                                   No pseudopotential on this center.
   21          1
                                   No pseudopotential on this center.
   22          1
                                   No pseudopotential on this center.
   23          1
                                   No pseudopotential on this center.
   24          8
                                   No pseudopotential on this center.
   25         16
                                   No pseudopotential on this center.
   26          6
                                   No pseudopotential on this center.
   27          6
                                   No pseudopotential on this center.
   28          1
                                   No pseudopotential on this center.
   29          1
                                   No pseudopotential on this center.
   30          1
                                   No pseudopotential on this center.
   31          1
                                   No pseudopotential on this center.
   32          1
                                   No pseudopotential on this center.
   33          1
                                   No pseudopotential on this center.
   34          8
                                   No pseudopotential on this center.
   35         16
                                   No pseudopotential on this center.
   36          6
                                   No pseudopotential on this center.
   37          6
                                   No pseudopotential on this center.
   38          1
                                   No pseudopotential on this center.
   39          1
                                   No pseudopotential on this center.
   40          1
                                   No pseudopotential on this center.
   41          1
                                   No pseudopotential on this center.
   42          1
                                   No pseudopotential on this center.
   43          1
                                   No pseudopotential on this center.
 ======================================================================================================
 There are   960 symmetry adapted cartesian basis functions of A   symmetry.
 There are   856 symmetry adapted basis functions of A   symmetry.
   856 basis functions,  1444 primitive gaussians,   960 cartesian basis functions
    93 alpha electrons       93 beta electrons
       nuclear repulsion energy      2118.2867851644 Hartrees.
 NAtoms=   43 NActive=   43 NUniq=   43 SFac= 1.00D+00 NAtFMM=   60 NAOKFM=F Big=F
 Integral buffers will be    131072 words long.
 Raffenetti 1 integral format.
 Two-electron integral symmetry is turned on.
 Nuclear repulsion after empirical dispersion term =     2118.2206067592 Hartrees.
 ------------------------------------------------------------------------------
 Polarizable Continuum Model (PCM)
 =================================
 Model                : PCM.
 Atomic radii         : UFF (Universal Force Field).
 Polarization charges : Total charges.
 Charge compensation  : None.
 Solution method      : On-the-fly selection.
 Cavity type          : Scaled VdW (van der Waals Surface) (Alpha=1.100).
 Cavity algorithm     : GePol (No added spheres)
                        Default sphere list used, NSphG=   43.
                        Lebedev-Laikov grids with approx.  5.0 points / Ang**2.
                        Smoothing algorithm: York/Karplus (Gamma=1.0000).
                        Polarization charges: spherical gaussians, with
                                              point-specific exponents (IZeta= 3).
                        Self-potential: point-specific (ISelfS= 7).
                        Self-field    : sphere-specific E.n sum rule (ISelfD= 2).
 Solvent              : DiMethylSulfoxide, Eps=  46.826000 Eps(inf)=   2.007889
 ------------------------------------------------------------------------------
 One-electron integrals computed using PRISM.
   1 Symmetry operations used in ECPInt.
 ECPInt:  NShTT=   52650 NPrTT=  228617 LenC2=   43375 LenP2D=  113989.
 LDataN:  DoStor=T MaxTD1= 7 Len=  274
 NBasis=   856 RedAO= T EigKep=  1.13D-03  NBF=   856
 NBsUse=   856 1.00D-06 EigRej= -1.00D+00 NBFU=   856
 Defaulting to unpruned grid for atomic number  82.
 Initial guess from the checkpoint file:  "02-PbI2_DMSO.chk"
 B after Tr=    -0.000000   -0.000000   -0.000000
         Rot=    1.000000   -0.000000    0.000000   -0.000000 Ang=   0.00 deg.
 Requested convergence on RMS density matrix=1.00D-08 within 128 cycles.
 Requested convergence on MAX density matrix=1.00D-06.
 Requested convergence on             energy=1.00D-06.
 No special actions if energy rises.
 Defaulting to unpruned grid for atomic number  82.
 Defaulting to unpruned grid for atomic number  82.
 Defaulting to unpruned grid for atomic number  82.
 Defaulting to unpruned grid for atomic number  82.
 Inv3:  Mode=1 IEnd=    37425072.
 Iteration    1 A*A^-1 deviation from unit magnitude is 3.66D-15 for    765.
 Iteration    1 A*A^-1 deviation from orthogonality  is 4.88D-15 for   3268    684.
 Iteration    1 A^-1*A deviation from unit magnitude is 3.55D-15 for    765.
 Iteration    1 A^-1*A deviation from orthogonality  is 2.66D-15 for   2951   1527.
 Error on total polarization charges =  0.02407
 SCF Done:  E(RCAM-B3LYP) =  -2239.33404517     A.U. after   11 cycles
            NFock= 11  Conv=0.90D-08     -V/T= 2.0131
 DoSCS=F DFT=T ScalE2(SS,OS)=  1.000000  1.000000
 ExpMin= 5.98D-02 ExpMax= 3.74D+05 ExpMxC= 1.18D+03 IAcc=3 IRadAn=         5 AccDes= 0.00D+00
 HarFok:  IExCor=  205 AccDes= 0.00D+00 IRadAn=         5 IDoV=-2 UseB2=F ITyADJ=14
 ICtDFT= 12500011 ScaDFX=  1.000000  1.000000  1.000000  1.000000
 Defaulting to unpruned grid for atomic number  82.
 GSVD:  LWork=       -1280 too small for GESVD, short by        5600 words or        5600 for optimal perf.
 Range of M.O.s used for correlation:    33   856
 NBasis=   856 NAE=    93 NBE=    93 NFC=    32 NFV=     0
 NROrb=    824 NOA=    61 NOB=    61 NVA=   763 NVB=   763
 NEqPCM:  Using non-equilibrium solvation (IEInf=1, Eps=  46.8260, EpsInf=   2.0079)
 Inv3:  Mode=1 IEnd=    37425072.
 Iteration    1 A*A^-1 deviation from unit magnitude is 4.44D-15 for    369.
 Iteration    1 A*A^-1 deviation from orthogonality  is 1.78D-15 for   1785    785.
 Iteration    1 A^-1*A deviation from unit magnitude is 3.77D-15 for   2312.
 Iteration    1 A^-1*A deviation from orthogonality  is 4.11D-15 for   2301   2267.
 Orbital symmetries:
       Occupied  (A) (A) (A) (A) (A) (A) (A) (A) (A) (A) (A) (A)
                 (A) (A) (A) (A) (A) (A) (A) (A) (A) (A) (A) (A)
                 (A) (A) (A) (A) (A) (A) (A) (A) (A) (A) (A) (A)
                 (A) (A) (A) (A) (A) (A) (A) (A) (A) (A) (A) (A)
                 (A) (A) (A) (A) (A) (A) (A) (A) (A) (A) (A) (A)
                 (A) (A) (A) (A) (A) (A) (A) (A) (A) (A) (A) (A)
                 (A) (A) (A) (A) (A) (A) (A) (A) (A) (A) (A) (A)
                 (A) (A) (A) (A) (A) (A) (A) (A) (A)
       Virtual   (A) (A) (A) (A) (A) (A) (A) (A) (A) (A) (A) (A)
                 (A) (A) (A) (A) (A) (A) (A) (A) (A) (A) (A) (A)
                 (A) (A) (A) (A) (A) (A) (A) (A) (A) (A) (A) (A)
                 (A) (A) (A) (A) (A) (A) (A) (A) (A) (A) (A) (A)
                 (A) (A) (A) (A) (A) (A) (A) (A) (A) (A) (A) (A)
                 (A) (A) (A) (A) (A) (A) (A) (A) (A) (A) (A) (A)
                 (A) (A) (A) (A) (A) (A) (A) (A) (A) (A) (A) (A)
                 (A) (A) (A) (A) (A) (A) (A) (A) (A) (A) (A) (A)
                 (A) (A) (A) (A) (A) (A) (A) (A) (A) (A) (A) (A)
                 (A) (A) (A) (A) (A) (A) (A) (A) (A) (A) (A) (A)
                 (A) (A) (A) (A) (A) (A) (A) (A) (A) (A) (A) (A)
                 (A) (A) (A) (A) (A) (A) (A) (A) (A) (A) (A) (A)
                 (A) (A) (A) (A) (A) (A) (A) (A) (A) (A) (A) (A)
                 (A) (A) (A) (A) (A) (A) (A) (A) (A) (A) (A) (A)
                 (A) (A) (A) (A) (A) (A) (A) (A) (A) (A) (A) (A)
                 (A) (A) (A) (A) (A) (A) (A) (A) (A) (A) (A) (A)
                 (A) (A) (A) (A) (A) (A) (A) (A) (A) (A) (A) (A)
                 (A) (A) (A) (A) (A) (A) (A) (A) (A) (A) (A) (A)
                 (A) (A) (A) (A) (A) (A) (A) (A) (A) (A) (A) (A)
                 (A) (A) (A) (A) (A) (A) (A) (A) (A) (A) (A) (A)
                 (A) (A) (A) (A) (A) (A) (A) (A) (A) (A) (A) (A)
                 (A) (A) (A) (A) (A) (A) (A) (A) (A) (A) (A) (A)
                 (A) (A) (A) (A) (A) (A) (A) (A) (A) (A) (A) (A)
                 (A) (A) (A) (A) (A) (A) (A) (A) (A) (A) (A) (A)
                 (A) (A) (A) (A) (A) (A) (A) (A) (A) (A) (A) (A)
                 (A) (A) (A) (A) (A) (A) (A) (A) (A) (A) (A) (A)
                 (A) (A) (A) (A) (A) (A) (A) (A) (A) (A) (A) (A)
                 (A) (A) (A) (A) (A) (A) (A) (A) (A) (A) (A) (A)
                 (A) (A) (A) (A) (A) (A) (A) (A) (A) (A) (A) (A)
                 (A) (A) (A) (A) (A) (A) (A) (A) (A) (A) (A) (A)
                 (A) (A) (A) (A) (A) (A) (A) (A) (A) (A) (A) (A)
                 (A) (A) (A) (A) (A) (A) (A) (A) (A) (A) (A) (A)
                 (A) (A) (A) (A) (A) (A) (A) (A) (A) (A) (A) (A)
                 (A) (A) (A) (A) (A) (A) (A) (A) (A) (A) (A) (A)
                 (A) (A) (A) (A) (A) (A) (A) (A) (A) (A) (A) (A)
                 (A) (A) (A) (A) (A) (A) (A) (A) (A) (A) (A) (A)
                 (A) (A) (A) (A) (A) (A) (A) (A) (A) (A) (A) (A)
                 (A) (A) (A) (A) (A) (A) (A) (A) (A) (A) (A) (A)
                 (A) (A) (A) (A) (A) (A) (A) (A) (A) (A) (A) (A)
                 (A) (A) (A) (A) (A) (A) (A) (A) (A) (A) (A) (A)
                 (A) (A) (A) (A) (A) (A) (A) (A) (A) (A) (A) (A)
                 (A) (A) (A) (A) (A) (A) (A) (A) (A) (A) (A) (A)
                 (A) (A) (A) (A) (A) (A) (A) (A) (A) (A) (A) (A)
                 (A) (A) (A) (A) (A) (A) (A) (A) (A) (A) (A) (A)
                 (A) (A) (A) (A) (A) (A) (A) (A) (A) (A) (A) (A)
                 (A) (A) (A) (A) (A) (A) (A) (A) (A) (A) (A) (A)
                 (A) (A) (A) (A) (A) (A) (A) (A) (A) (A) (A) (A)
                 (A) (A) (A) (A) (A) (A) (A) (A) (A) (A) (A) (A)
                 (A) (A) (A) (A) (A) (A) (A) (A) (A) (A) (A) (A)
                 (A) (A) (A) (A) (A) (A) (A) (A) (A) (A) (A) (A)
                 (A) (A) (A) (A) (A) (A) (A) (A) (A) (A) (A) (A)
                 (A) (A) (A) (A) (A) (A) (A) (A) (A) (A) (A) (A)
                 (A) (A) (A) (A) (A) (A) (A) (A) (A) (A) (A) (A)
                 (A) (A) (A) (A) (A) (A) (A) (A) (A) (A) (A) (A)
                 (A) (A) (A) (A) (A) (A) (A) (A) (A) (A) (A) (A)
                 (A) (A) (A) (A) (A) (A) (A) (A) (A) (A) (A) (A)
                 (A) (A) (A) (A) (A) (A) (A) (A) (A) (A) (A) (A)
                 (A) (A) (A) (A) (A) (A) (A) (A) (A) (A) (A) (A)
                 (A) (A) (A) (A) (A) (A) (A) (A) (A) (A) (A) (A)
                 (A) (A) (A) (A) (A) (A) (A) (A) (A) (A) (A) (A)
                 (A) (A) (A) (A) (A) (A) (A) (A) (A) (A) (A) (A)
                 (A) (A) (A) (A) (A) (A) (A) (A) (A) (A) (A) (A)
                 (A) (A) (A) (A) (A) (A) (A) (A) (A) (A) (A) (A)
                 (A) (A) (A) (A) (A) (A) (A)
    40 initial guesses have been made.
 Convergence on wavefunction:    0.001000000000000
 Iteration     1 Dimension    40 NMult     0 NNew     40
 CISAX will form    40 AO SS matrices at one time.
 Defaulting to unpruned grid for atomic number  82.
 Defaulting to unpruned grid for atomic number  82.
 Defaulting to unpruned grid for atomic number  82.
 Defaulting to unpruned grid for atomic number  82.
 New state      4 was old state      6
 New state      5 was old state      4
 New state      6 was old state      8
 New state      7 was old state     12
 New state      8 was old state      5
 New state      9 was old state      7
 Iteration     2 Dimension    60 NMult    40 NNew     20
 New state      5 was old state      8
 New state      6 was old state      5
 New state      7 was old state      9
 New state      8 was old state      7
 New state      9 was old state      6
 Iteration     3 Dimension    80 NMult    60 NNew     20
 Iteration     4 Dimension   100 NMult    80 NNew     20
 Iteration     5 Dimension   120 NMult   100 NNew     20
 New state      6 was old state      7
 New state      7 was old state      6
 Iteration     6 Dimension   140 NMult   120 NNew     20
 Iteration     7 Dimension   158 NMult   140 NNew     18
 Iteration     8 Dimension   172 NMult   158 NNew     14
 Iteration     9 Dimension   184 NMult   172 NNew     12
 Iteration    10 Dimension   190 NMult   184 NNew      6
 ***********************************************************************
 Excited states from <AA,BB:AA,BB> singles matrix:
 ***********************************************************************
 
 Ground to excited state transition densities written to RWF  633
 Ground to excited state transition electric dipole moments (Au):
       state          X           Y           Z        Dip. S.      Osc.
         1         0.3530      0.2165     -0.9714      1.1150      0.1444
         2        -0.6840     -0.8957     -0.4161      1.4433      0.1873
         3        -1.7242      0.5386      0.0736      3.2682      0.4310
         4         0.0854      0.1454      0.2185      0.0762      0.0107
         5        -0.0129     -0.1425     -0.1809      0.0532      0.0075
         6        -0.1003      0.1541     -0.0196      0.0342      0.0049
         7        -0.0162     -0.2369      0.0131      0.0565      0.0081
         8         0.1816      0.0709      0.0727      0.0433      0.0062
         9        -0.1957      0.2675     -0.0213      0.1103      0.0160
        10        -0.6355      0.0428     -0.0803      0.4121      0.0601
 Ground to excited state transition velocity dipole moments (Au):
       state          X           Y           Z        Dip. S.      Osc.
         1        -0.0538     -0.0439      0.1490      0.0270      0.0927
         2         0.1115      0.1607      0.0512      0.0409      0.1399
         3         0.2604     -0.0936     -0.0066      0.0766      0.2582
         4        -0.0052     -0.0376     -0.0423      0.0032      0.0102
         5         0.0206      0.0316      0.0406      0.0031      0.0096
         6         0.0242     -0.0376      0.0110      0.0021      0.0066
         7         0.0093      0.0598     -0.0020      0.0037      0.0114
         8        -0.0285     -0.0189     -0.0309      0.0021      0.0066
         9         0.0302     -0.0648      0.0190      0.0055      0.0167
        10         0.1218     -0.0098      0.0054      0.0150      0.0456
 Ground to excited state transition magnetic dipole moments (Au):
       state          X           Y           Z
         1         0.2208     -0.1144     -0.5407
         2        -1.1222      0.6845      0.2398
         3         0.7261      0.8274     -0.2516
         4         0.5305      0.8132     -0.1080
         5        -0.0964      0.5978      0.0072
         6         0.1163     -0.0950     -0.1905
         7        -0.0592      0.0720      0.2996
         8        -0.5988      0.6329     -0.1066
         9        -0.2496      0.1020      0.4325
        10        -0.6458     -0.0037      0.2700
 Ground to excited state transition velocity quadrupole moments (Au):
       state          XX          YY          ZZ          XY          XZ          YZ
         1         0.3960      0.3694      0.1470      0.1558      0.0254      0.0869
         2         0.1839      0.1935      0.1105      0.0897      0.1988     -0.1479
         3         0.1210     -0.0211     -0.0757      0.1299      0.0205      0.1559
         4        -0.4013      0.0854     -0.0828      0.1754      0.2816     -0.1024
         5         0.5270     -0.4553      0.0018      0.0607      0.3392      0.1676
         6         0.0341      0.4599     -0.2667      0.0695      0.2164     -0.1816
         7         0.1261     -0.0594      0.0201      0.2123      0.0528     -0.1838
         8        -0.0011      0.5006      0.1113      0.1412     -0.0443     -0.0655
         9         0.0963     -0.3325     -0.0715      0.2024     -0.1373      0.1886
        10         0.0731     -0.0002      0.1657      0.0541      0.1801      0.1366
 <0|del|b> * <b|rxdel|0> + <0|del|b> * <b|delr+rdel|0>
 Rotatory Strengths (R) in cgs (10**-40 erg-esu-cm/Gauss)
       state          XX          YY          ZZ    R(velocity)    E-M Angle
         1       -93.2206   -218.9973     -5.9989   -106.0723      153.34
         2       172.3652   -243.1273     60.5263     -3.4120       90.60
         3      -133.5582    414.9847    123.5284    134.9850       68.75
         4       -38.3298     16.4251    -74.5681    -32.1576      121.16
         5        18.1945     -1.1647     40.2462     19.0920       59.14
         6        17.1948     -7.3381      4.3891      4.7486       67.36
         7         0.1768     -4.0148     14.2449      3.4689       80.47
         8       -22.7050     43.6240      6.7300      9.2163       77.97
         9        -5.5620      4.1055    -17.7829     -6.4131       99.05
        10         5.7480    -98.4081   -156.9138    -83.1913      154.33
 1/2[<0|r|b>*<b|rxdel|0> + (<0|rxdel|b>*<b|r|0>)*]
 Rotatory Strengths (R) in cgs (10**-40 erg-esu-cm/Gauss)
       state          XX          YY          ZZ     R(length)
         1       -55.1230     17.5159   -371.3884   -136.3318
         2      -542.8205    433.5767     70.5633    -12.8935
         3       885.3072   -315.1284     13.0885    194.4224
         4       -32.0481    -83.6271     16.6919    -32.9944
         5        -0.8812     60.2506      0.9260     20.0985
         6         8.2504     10.3503     -2.6404      5.3201
         7        -0.6776     12.0556     -2.7712      2.8689
         8        76.8908    -31.7261      5.4828     16.8825
         9       -34.5465    -19.2859      6.5162    -15.7721
        10      -290.2067      0.1118     15.3315    -91.5878
  1/2[<0|del|b>*<b|r|0> + (<0|r|b>*<b|del|0>)*] (Au)
[...]
     5  S    0.000014  -0.000000  -0.000000  -0.000004  -0.000005  -0.000659
     6  C   -0.000000  -0.000000  -0.000000   0.000000  -0.000000  -0.000018
     7  C   -0.000147   0.000000   0.000000   0.000001   0.000006  -0.008520
     8  H   -0.000000  -0.000000   0.000000   0.000000   0.000000   0.000000
     9  H    0.000496  -0.000000  -0.000002  -0.000000  -0.000023   0.024859
    10  H    0.000000   0.000000   0.000000   0.000000   0.000000   0.000000
    11  H   -0.000002   0.000000  -0.000000   0.000000   0.000000   0.000651
    12  H    0.000000  -0.000000   0.000000  -0.000000  -0.000000  -0.000020
    13  H   -0.000007   0.000000   0.000000   0.000000   0.000002  -0.002238
    14  O    0.001635   0.002586   0.002481   0.002567   0.001226  -0.000885
    15  S   -0.021770  -0.010512  -0.009941  -0.027664  -0.030317  -0.001089
    16  C    0.004647   0.370686  -0.000555   0.370714  -0.010524  -0.000023
    17  C    0.371092   0.000377   0.375148  -0.011284   0.372946  -0.003787
    18  H   -0.000182  -0.018212  -0.000287  -0.028372   0.000160  -0.000001
    19  H    0.541413  -0.000270  -0.016141  -0.000020  -0.030528   0.016990
    20  H   -0.000270   0.547722  -0.000760  -0.023289   0.000456   0.000000
    21  H   -0.016141  -0.000760   0.524042   0.000997  -0.020829   0.000632
    22  H   -0.000020  -0.023289   0.000997   0.587581   0.005903  -0.000039
    23  H   -0.030528   0.000456  -0.020829   0.005903   0.586919  -0.000774
    24  O    0.016990   0.000000   0.000632  -0.000039  -0.000774   8.353975
    25  S   -0.004627   0.000000  -0.000036  -0.000006  -0.000145   0.357811
    26  C    0.000093   0.000000   0.000003  -0.000000  -0.000014  -0.034767
    27  C    0.000880   0.000000  -0.000030   0.000017  -0.000913  -0.031656
    28  H    0.000005   0.000000  -0.000000  -0.000000   0.000001   0.000614
    29  H    0.000180  -0.000001   0.000051  -0.000070   0.000517   0.000351
    30  H   -0.000017  -0.000000  -0.000000   0.000000   0.000001   0.002299
    31  H   -0.000132   0.000000   0.000001  -0.000001   0.000027   0.002638
    32  H   -0.000047   0.000000  -0.000000   0.000000  -0.000003   0.004764
    33  H   -0.000085   0.000000  -0.000005   0.000005  -0.000039   0.000519
    34  O   -0.000009   0.000059  -0.000001   0.001372  -0.000049   0.000072
    35  S   -0.000001   0.000003  -0.000000   0.000047  -0.000001  -0.000003
    36  C   -0.000000  -0.000000  -0.000000  -0.000061   0.000004   0.000002
    37  C   -0.000000   0.000000   0.000000   0.000009  -0.000000   0.000002
    38  H    0.000000   0.000000  -0.000000   0.000170  -0.000013   0.000000
    39  H    0.000000  -0.000000  -0.000000  -0.000002  -0.000000  -0.000001
    40  H   -0.000000  -0.000000  -0.000000   0.000001  -0.000000   0.000000
    41  H   -0.000000  -0.000000   0.000000  -0.000000   0.000000   0.000000
    42  H   -0.000000  -0.000000   0.000000  -0.000019   0.000000   0.000007
    43  H   -0.000000   0.000000   0.000000   0.000003   0.000001   0.000008
              25         26         27         28         29         30
     1  Pb  -0.008879  -0.000990  -0.010094  -0.000184   0.000584   0.000244
     2  I    0.002365  -0.018833  -0.018817   0.000401   0.000159   0.000057
     3  I    0.000628  -0.000030  -0.016639   0.000002   0.016242  -0.000000
     4  O   -0.000008  -0.000096  -0.000014   0.000012   0.000002  -0.000001
     5  S    0.000133   0.000063  -0.000009   0.000070  -0.000001  -0.000004
     6  C   -0.000004   0.000003  -0.000003  -0.000013   0.000000   0.000000
     7  C   -0.001873  -0.000134  -0.000280  -0.001347  -0.000003   0.000039
     8  H   -0.000000   0.000000   0.000000   0.000000   0.000000   0.000000
     9  H   -0.000121  -0.002064   0.000746   0.000901  -0.000013   0.000070
    10  H    0.000000   0.000000   0.000000   0.000001   0.000000   0.000000
    11  H   -0.000058  -0.000365  -0.000005   0.000251  -0.000000   0.000008
    12  H    0.000005  -0.000043   0.000009   0.000007  -0.000000  -0.000002
    13  H    0.000642  -0.004511   0.000021  -0.000464   0.000014  -0.000018
    14  O   -0.000119  -0.000003  -0.000097  -0.000001  -0.000035   0.000000
    15  S    0.000102  -0.000005   0.000023   0.000000   0.000076   0.000000
    16  C   -0.000002  -0.000000  -0.000004  -0.000000   0.000016   0.000000
    17  C    0.000919   0.000042   0.000012  -0.000004  -0.001512   0.000002
    18  H    0.000000   0.000000   0.000000   0.000000   0.000000  -0.000000
    19  H   -0.004627   0.000093   0.000880   0.000005   0.000180  -0.000017
    20  H    0.000000   0.000000   0.000000   0.000000  -0.000001  -0.000000
    21  H   -0.000036   0.000003  -0.000030  -0.000000   0.000051  -0.000000
    22  H   -0.000006  -0.000000   0.000017  -0.000000  -0.000070   0.000000
    23  H   -0.000145  -0.000014  -0.000913   0.000001   0.000517   0.000001
    24  O    0.357811  -0.034767  -0.031656   0.000614   0.000351   0.002299
    25  S   14.680967   0.278961   0.260403  -0.021125  -0.021573  -0.012255
    26  C    0.278961   4.969650  -0.038018   0.391825   0.003905   0.383505
    27  C    0.260403  -0.038018   5.017014   0.004044   0.383903  -0.001615
    28  H   -0.021125   0.391825   0.004044   0.535265  -0.000142  -0.019290
    29  H   -0.021573   0.003905   0.383903  -0.000142   0.546523  -0.000169
    30  H   -0.012255   0.383505  -0.001615  -0.019290  -0.000169   0.519147
    31  H   -0.010006   0.000504   0.374430  -0.000168  -0.017085  -0.000633
    32  H   -0.034152   0.370203  -0.009664  -0.028582  -0.000114  -0.018874
    33  H   -0.028060  -0.011861   0.367534   0.000029  -0.033351   0.001317
    34  O   -0.000007  -0.000000   0.000003  -0.000000   0.000009   0.000000
    35  S   -0.000002   0.000000  -0.000001   0.000000  -0.000001   0.000000
    36  C   -0.000000  -0.000001   0.000005  -0.000000   0.000004   0.000000
    37  C    0.000000  -0.000001  -0.000001   0.000000   0.000000   0.000000
    38  H    0.000000   0.000000   0.000002  -0.000000  -0.000003   0.000000
    39  H   -0.000000   0.000000   0.000000  -0.000000  -0.000000   0.000000
    40  H   -0.000000  -0.000000   0.000000  -0.000000   0.000000   0.000000
    41  H   -0.000000   0.000000   0.000000  -0.000000  -0.000000   0.000000
    42  H   -0.000002   0.000005  -0.000016  -0.000000  -0.000006  -0.000000
    43  H   -0.000003   0.000005   0.000012  -0.000000   0.000000  -0.000000
              31         32         33         34         35         36
     1  Pb  -0.000061   0.000299  -0.007411  -0.002675  -0.010904  -0.008476
     2  I    0.000022   0.029498   0.032018  -0.000173   0.002319  -0.020777
     3  I    0.000647  -0.000080   0.003762  -0.003268  -0.000496  -0.010667
     4  O   -0.000000  -0.000090   0.000002  -0.003542  -0.001046  -0.000087
     5  S   -0.000000   0.000238   0.000001   0.000199   0.000248   0.000010
     6  C    0.000000   0.000004   0.000012  -0.000160   0.000091  -0.000015
     7  C    0.000016  -0.003720   0.000164  -0.000031   0.000001  -0.000003
     8  H    0.000000   0.000001  -0.000000  -0.000004   0.000001  -0.000001
     9  H   -0.000065  -0.001484   0.000064  -0.000013  -0.000004  -0.000000
    10  H    0.000000  -0.000007  -0.000000  -0.000002  -0.000001   0.000000
    11  H   -0.000000   0.000459   0.000005  -0.000000  -0.000000   0.000000
    12  H    0.000000  -0.000051  -0.000020  -0.000022   0.000041   0.000028
    13  H    0.000018  -0.001323  -0.000393  -0.000011  -0.000005   0.000010
    14  O   -0.000002  -0.000006   0.000018  -0.002356   0.000178  -0.000027
    15  S   -0.000000  -0.000001  -0.000016  -0.000788   0.000056   0.000006
    16  C    0.000000  -0.000000   0.000004   0.001346  -0.000019   0.000007
    17  C    0.000045   0.000003   0.000083  -0.000008   0.000000  -0.000001
    18  H    0.000000   0.000000  -0.000000   0.000963   0.000076   0.000004
    19  H   -0.000132  -0.000047  -0.000085  -0.000009  -0.000001  -0.000000
    20  H    0.000000   0.000000   0.000000   0.000059   0.000003  -0.000000
    21  H    0.000001  -0.000000  -0.000005  -0.000001  -0.000000  -0.000000
    22  H   -0.000001   0.000000   0.000005   0.001372   0.000047  -0.000061
    23  H    0.000027  -0.000003  -0.000039  -0.000049  -0.000001   0.000004
    24  O    0.002638   0.004764   0.000519   0.000072  -0.000003   0.000002
    25  S   -0.010006  -0.034152  -0.028060  -0.000007  -0.000002  -0.000000
    26  C    0.000504   0.370203  -0.011861  -0.000000   0.000000  -0.000001
    27  C    0.374430  -0.009664   0.367534   0.000003  -0.000001   0.000005
    28  H   -0.000168  -0.028582   0.000029  -0.000000   0.000000  -0.000000
    29  H   -0.017085  -0.000114  -0.033351   0.000009  -0.000001   0.000004
    30  H   -0.000633  -0.018874   0.001317   0.000000   0.000000   0.000000
    31  H    0.530384   0.000843  -0.022133   0.000000  -0.000000   0.000000
    32  H    0.000843   0.586776   0.007011   0.000001  -0.000002   0.000005
    33  H   -0.022133   0.007011   0.592299   0.000007  -0.000001  -0.000022
    34  O    0.000000   0.000001   0.000007   8.365357   0.378499  -0.035870
    35  S   -0.000000  -0.000002  -0.000001   0.378499  14.651497   0.266705
    36  C    0.000000   0.000005  -0.000022  -0.035870   0.266705   4.995041
    37  C    0.000000   0.000005   0.000012  -0.042823   0.262895  -0.035915
    38  H   -0.000000   0.000000  -0.000007   0.001654  -0.020634   0.375243
    39  H    0.000000  -0.000000   0.000000   0.002778  -0.019588   0.004934
    40  H    0.000000   0.000000   0.000000   0.002677  -0.008436   0.371753
    41  H    0.000000  -0.000000   0.000000   0.002543  -0.009198  -0.000532
    42  H    0.000000  -0.000013   0.000174   0.000718  -0.027088   0.373367
    43  H    0.000000  -0.000015  -0.000045   0.002792  -0.029256  -0.011126
              37         38         39         40         41         42
     1  Pb  -0.006465   0.001646   0.000913   0.000093   0.000140  -0.004580
     2  I   -0.020506   0.000233   0.000202   0.000171   0.000155   0.034782
     3  I    0.000024   0.016842  -0.000000   0.000342   0.000006   0.002219
     4  O   -0.002907  -0.000003   0.007108  -0.000003   0.000269  -0.000206
     5  S   -0.001021  -0.000001   0.000812  -0.000001  -0.000005   0.000020
     6  C    0.000070   0.000000  -0.000437   0.000000  -0.000051   0.000014
     7  C    0.000001   0.000000   0.000164   0.000000  -0.000000   0.000016
     8  H   -0.000272  -0.000000   0.000330   0.000001   0.000049  -0.000004
     9  H    0.000000  -0.000000  -0.000002   0.000000  -0.000000   0.000003
    10  H   -0.000030   0.000000   0.000044  -0.000000   0.000000  -0.000002
    11  H    0.000002   0.000000  -0.000010   0.000000  -0.000000   0.000000
    12  H   -0.002226   0.000000  -0.000401  -0.000001   0.000128  -0.000095
    13  H   -0.000014  -0.000000  -0.000017  -0.000000   0.000001  -0.000054
    14  O   -0.000041   0.000001  -0.000007  -0.000000  -0.000000   0.000002
    15  S   -0.000006  -0.000002   0.000004   0.000000  -0.000000  -0.000001
    16  C    0.000004  -0.000027  -0.000001  -0.000000  -0.000000   0.000004
    17  C   -0.000000   0.000003   0.000000   0.000000   0.000000   0.000001
    18  H   -0.000001   0.000000   0.000002  -0.000000  -0.000000  -0.000002
    19  H   -0.000000   0.000000   0.000000  -0.000000  -0.000000  -0.000000
    20  H    0.000000   0.000000  -0.000000  -0.000000  -0.000000  -0.000000
    21  H    0.000000  -0.000000  -0.000000  -0.000000   0.000000   0.000000
    22  H    0.000009   0.000170  -0.000002   0.000001  -0.000000  -0.000019
    23  H   -0.000000  -0.000013  -0.000000  -0.000000   0.000000   0.000000
    24  O    0.000002   0.000000  -0.000001   0.000000   0.000000   0.000007
    25  S    0.000000   0.000000  -0.000000  -0.000000  -0.000000  -0.000002
    26  C   -0.000001   0.000000   0.000000  -0.000000   0.000000   0.000005
    27  C   -0.000001   0.000002   0.000000   0.000000   0.000000  -0.000016
    28  H    0.000000  -0.000000  -0.000000  -0.000000  -0.000000  -0.000000
    29  H    0.000000  -0.000003  -0.000000   0.000000  -0.000000  -0.000006
    30  H    0.000000   0.000000   0.000000   0.000000   0.000000  -0.000000
    31  H    0.000000  -0.000000   0.000000   0.000000   0.000000   0.000000
    32  H    0.000005   0.000000  -0.000000   0.000000  -0.000000  -0.000013
    33  H    0.000012  -0.000007   0.000000   0.000000   0.000000   0.000174
    34  O   -0.042823   0.001654   0.002778   0.002677   0.002543   0.000718
    35  S    0.262895  -0.020634  -0.019588  -0.008436  -0.009198  -0.027088
    36  C   -0.035915   0.375243   0.004934   0.371753  -0.000532   0.373367
    37  C    5.000102   0.004506   0.377640   0.000132   0.376882  -0.012720
    38  H    0.004506   0.547627  -0.000165  -0.016763  -0.000284  -0.030995
    39  H    0.377640  -0.000165   0.547222  -0.000356  -0.016543   0.000107
    40  H    0.000132  -0.016763  -0.000356   0.538414  -0.000755  -0.024295
    41  H    0.376882  -0.000284  -0.016543  -0.000755   0.525629   0.001042
    42  H   -0.012720  -0.030995   0.000107  -0.024295   0.001042   0.592718
    43  H    0.370129   0.000005  -0.034269   0.000900  -0.022221   0.005809
              43
     1  Pb  -0.002751
     2  I    0.033070
     3  I   -0.000023
     4  O    0.002457
     5  S   -0.000317
     6  C   -0.004128
     7  C   -0.000158
     8  H    0.000108
     9  H   -0.000008
    10  H    0.000033
    11  H    0.000010
    12  H    0.001157
    13  H    0.000054
    14  O    0.000001
    15  S   -0.000005
    16  C   -0.000001
    17  C    0.000000
    18  H   -0.000001
    19  H   -0.000000
    20  H    0.000000
    21  H    0.000000
    22  H    0.000003
    23  H    0.000001
    24  O    0.000008
    25  S   -0.000003
    26  C    0.000005
    27  C    0.000012
    28  H   -0.000000
    29  H    0.000000
    30  H   -0.000000
    31  H    0.000000
    32  H   -0.000015
    33  H   -0.000045
    34  O    0.002792
    35  S   -0.029256
    36  C   -0.011126
    37  C    0.370129
    38  H    0.000005
    39  H   -0.034269
    40  H    0.000900
    41  H   -0.022221
    42  H    0.005809
    43  H    0.607627
 Mulliken charges:
               1
     1  Pb   1.148816
     2  I   -0.700252
     3  I   -0.736734
     4  O   -0.675571
     5  S    0.579165
     6  C   -0.280209
     7  C   -0.310047
     8  H    0.136625
     9  H    0.134248
    10  H    0.142666
    11  H    0.145616
    12  H    0.110256
    13  H    0.103478
    14  O   -0.673297
    15  S    0.572627
    16  C   -0.255540
    17  C   -0.294621
    18  H    0.130714
    19  H    0.136009
    20  H    0.130641
    21  H    0.144982
    22  H    0.090558
    23  H    0.089832
    24  O   -0.667111
    25  S    0.560124
    26  C   -0.287032
    27  C   -0.281185
    28  H    0.137889
    29  H    0.121540
    30  H    0.146189
    31  H    0.140709
    32  H    0.098120
    33  H    0.098408
    34  O   -0.669240
    35  S    0.564028
    36  C   -0.263547
    37  C   -0.267466
    38  H    0.120962
    39  H    0.129541
    40  H    0.136125
    41  H    0.142747
    42  H    0.089090
    43  H    0.080146
 Sum of Mulliken charges =  -0.00000
 Mulliken charges with hydrogens summed into heavy atoms:
               1
     1  Pb   1.148816
     2  I   -0.700252
     3  I   -0.736734
     4  O   -0.675571
     5  S    0.579165
     6  C    0.109338
     7  C    0.073295
    14  O   -0.673297
    15  S    0.572627
    16  C    0.096373
    17  C    0.076201
    24  O   -0.667111
    25  S    0.560124
    26  C    0.095166
    27  C    0.079473
    34  O   -0.669240
    35  S    0.564028
    36  C    0.082631
    37  C    0.084968
 Electronic spatial extent (au):  <R**2>=           9579.8425
 Charge=             -0.0000 electrons
 Dipole moment (field-independent basis, Debye):
    X=             -5.4853    Y=              6.4679    Z=             10.4912  Tot=             13.4903
 Quadrupole moment (field-independent basis, Debye-Ang):
   XX=           -164.8468   YY=           -132.6455   ZZ=           -202.1159
   XY=              9.5687   XZ=             -2.3715   YZ=            -13.1903
 Traceless Quadrupole moment (field-independent basis, Debye-Ang):
   XX=              1.6893   YY=             33.8906   ZZ=            -35.5798
   XY=              9.5687   XZ=             -2.3715   YZ=            -13.1903
 Octapole moment (field-independent basis, Debye-Ang**2):
  XXX=             -1.6710  YYY=            -67.3799  ZZZ=            -85.3813  XYY=            -59.0150
  XXY=             52.6109  XXZ=            182.9115  XZZ=              9.3162  YZZ=             24.6365
  YYZ=            -79.6268  XYZ=              3.7694
 Hexadecapole moment (field-independent basis, Debye-Ang**3):
 XXXX=          -5354.1421 YYYY=          -4314.9326 ZZZZ=          -3731.8836 XXXY=             24.3278
 XXXZ=             30.8647 YYYX=            -21.4933 YYYZ=             -7.5351 ZZZX=             -7.4876
 ZZZY=            -21.3179 XXYY=          -1643.2639 XXZZ=          -1524.8298 YYZZ=          -1317.6018
 XXYZ=             20.0127 YYXZ=            -10.3342 ZZXY=            -12.7510
 N-N= 2.118220606759D+03 E-N=-9.516795723323D+03  KE= 2.210482028356D+03
 Unable to Open any file for archive entry.
 1\1\GINC-MPCL008\SP\RCAM-B3LYP TD-FC\Gen\C8H24I2O4Pb1S4\EDBA4025\11-No
 v-2020\0\\# cam-b3lyp/gen pseudo=read TD=NStates=10 Geom=Check Guess=R
 ead empiricaldispersion=gd3bj SCRF=(Solvent=DMSO)\\PbI2_DMSO\\0,1\Pb,0
 ,0.1066347308,-0.0298591729,0.4355915875\I,0,-2.4481692402,-0.08683620
 61,-1.9124710958\I,0,2.6543900348,-0.7935564934,-1.7358983657\O,0,-1.5
 529679859,-0.2122846207,2.1360347182\S,0,-2.7797895783,0.6599502738,2.
 6317292859\C,0,-4.2511249459,-0.1437909634,1.9083057991\C,0,-2.7960627
 777,2.16519705,1.603150819\H,0,-4.3638188553,-1.1205696669,2.412415050
 7\H,0,-1.8041628468,2.6405088588,1.7222868504\H,0,-5.127789278,0.49889
 45813,2.1172330581\H,0,-3.6072974927,2.8209797787,1.9728976114\H,0,-4.
 0776427237,-0.2628269961,0.8204221416\H,0,-2.9556855944,1.8666204058,0
 .5490032703\O,0,1.3738904178,0.2882313025,2.3899512195\S,0,2.875300546
 2,0.7115955209,2.6751026169\C,0,3.889565011,-0.7230795804,2.1862616803
 \C,0,3.3525568895,1.8635211938,1.3439319153\H,0,3.6185031417,-1.542431
 9717,2.8765009677\H,0,2.577087137,2.651403253,1.3530635956\H,0,4.95431
 46678,-0.4471235707,2.3125398985\H,0,4.352465267,2.2676435746,1.591202
 5398\H,0,3.6562526442,-0.98234392,1.1337219649\H,0,3.3526963404,1.3264
 162317,0.3742833131\O,0,0.2576122527,2.5752275795,0.5196601094\S,0,0.2
 895885298,3.6239916984,-0.6656624992\C,0,-1.4505687298,3.9279344724,-1
 .1369709988\C,0,0.7676469765,2.6897272772,-2.1596909966\H,0,-1.9315254
 226,4.4419142437,-0.2852141591\H,0,1.7807077057,2.2856679887,-1.978236
 3503\H,0,-1.4458541894,4.5882216529,-2.0252896991\H,0,0.7732814579,3.3
 934467253,-3.0139811567\H,0,-1.934297324,2.9554663372,-1.3579173442\H,
 0,0.0423067395,1.8661231146,-2.3170236264\O,0,0.3513487915,-2.30903021
 39,1.1402805384\S,0,-0.4209386743,-3.6133833794,0.688313395\C,0,-0.349
 6214882,-3.6444305102,-1.135383706\C,0,-2.2001875119,-3.2494803122,0.8
 774398786\H,0,0.7218247687,-3.6997426474,-1.4011539123\H,0,-2.34648640
 81,-3.0045782952,1.9443425055\H,0,-0.8893343498,-4.5466299475,-1.48189
 44881\H,0,-2.7633765922,-4.1610772345,0.599991525\H,0,-0.8091923229,-2
 .7182713446,-1.5356623085\H,0,-2.4701797186,-2.3900560673,0.2327528512
 \\Version=ES64L-G16RevC.01\State=1-A\HF=-2239.3340452\RMSD=9.024e-09\P
 G=C01 [X(C8H24I2O4Pb1S4)]\\@
 The archive entry for this job was punched.


 The cat could very well be man's best friend
 but would never stoop to admitting it.
                               -- Doug Larson
 Job cpu time:       0 days 10 hours 31 minutes 14.5 seconds.
 Elapsed time:       0 days  2 hours 37 minutes 50.6 seconds.
 File lengths (MBytes):  RWF=   3617 Int=      0 D2E=      0 Chk=    536 Scr=      1
 Normal termination of Gaussian 16 at Wed Nov 11 21:54:25 2020.
