 Entering Gaussian System, Link 0=g16
 Input=02-PbI2_GBL_22803353.com
 Output=02-PbI2_GBL_22803353.log
 Initial command:
 /cm/shared/uniol/software/gaussian/g16.c01/g16/l1.exe "/scratch/22803353_edba4025/Gau-6684.inp" -scrdir="/scratch/22803353_edba4025/"
 Entering Link 1 = /cm/shared/uniol/software/gaussian/g16.c01/g16/l1.exe PID=      6685.
  
 Copyright (c) 1988-2019, Gaussian, Inc.  All Rights Reserved.
  
 This is part of the Gaussian(R) 16 program.  It is based on
 the Gaussian(R) 09 system (copyright 2009, Gaussian, Inc.),
 the Gaussian(R) 03 system (copyright 2003, Gaussian, Inc.),
 the Gaussian(R) 98 system (copyright 1998, Gaussian, Inc.),
 the Gaussian(R) 94 system (copyright 1995, Gaussian, Inc.),
 the Gaussian 92(TM) system (copyright 1992, Gaussian, Inc.),
 the Gaussian 90(TM) system (copyright 1990, Gaussian, Inc.),
 the Gaussian 88(TM) system (copyright 1988, Gaussian, Inc.),
 the Gaussian 86(TM) system (copyright 1986, Carnegie Mellon
 University), and the Gaussian 82(TM) system (copyright 1983,
 Carnegie Mellon University). Gaussian is a federally registered
 trademark of Gaussian, Inc.
  
 This software contains proprietary and confidential information,
 including trade secrets, belonging to Gaussian, Inc.
  
 This software is provided under written license and may be
 used, copied, transmitted, or stored only in accord with that
 written license.
  
 The following legend is applicable only to US Government
 contracts under FAR:
  
                    RESTRICTED RIGHTS LEGEND
  
 Use, reproduction and disclosure by the US Government is
 subject to restrictions as set forth in subparagraphs (a)
 and (c) of the Commercial Computer Software - Restricted
 Rights clause in FAR 52.227-19.
  
 Gaussian, Inc.
 340 Quinnipiac St., Bldg. 40, Wallingford CT 06492
  
  
 ---------------------------------------------------------------
 Warning -- This program may not be used in any manner that
 competes with the business of Gaussian, Inc. or will provide
 assistance to any competitor of Gaussian, Inc.  The licensee
 of this program is prohibited from giving any competitor of
 Gaussian, Inc. access to this program.  By using this program,
 the user acknowledges that Gaussian, Inc. is engaged in the
 business of creating and licensing software in the field of
 computational chemistry and represents and warrants to the
 licensee that it is not a competitor of Gaussian, Inc. and that
 it will not use this program in any manner prohibited above.
 ---------------------------------------------------------------
  

 Cite this work as:
 Gaussian 16, Revision C.01,
 M. J. Frisch, G. W. Trucks, H. B. Schlegel, G. E. Scuseria, 
 M. A. Robb, J. R. Cheeseman, G. Scalmani, V. Barone, 
 G. A. Petersson, H. Nakatsuji, X. Li, M. Caricato, A. V. Marenich, 
 J. Bloino, B. G. Janesko, R. Gomperts, B. Mennucci, H. P. Hratchian, 
 J. V. Ortiz, A. F. Izmaylov, J. L. Sonnenberg, D. Williams-Young, 
 F. Ding, F. Lipparini, F. Egidi, J. Goings, B. Peng, A. Petrone, 
 T. Henderson, D. Ranasinghe, V. G. Zakrzewski, J. Gao, N. Rega, 
 G. Zheng, W. Liang, M. Hada, M. Ehara, K. Toyota, R. Fukuda, 
 J. Hasegawa, M. Ishida, T. Nakajima, Y. Honda, O. Kitao, H. Nakai, 
 T. Vreven, K. Throssell, J. A. Montgomery, Jr., J. E. Peralta, 
 F. Ogliaro, M. J. Bearpark, J. J. Heyd, E. N. Brothers, K. N. Kudin, 
 V. N. Staroverov, T. A. Keith, R. Kobayashi, J. Normand, 
 K. Raghavachari, A. P. Rendell, J. C. Burant, S. S. Iyengar, 
 J. Tomasi, M. Cossi, J. M. Millam, M. Klene, C. Adamo, R. Cammi, 
 J. W. Ochterski, R. L. Martin, K. Morokuma, O. Farkas, 
 J. B. Foresman, and D. J. Fox, Gaussian, Inc., Wallingford CT, 2019.
 
 ******************************************
 Gaussian 16:  ES64L-G16RevC.01  3-Jul-2019
                12-Nov-2020 
 ******************************************
 %oldChk=01-PbI2_GBL
 %chk=02-PbI2_GBL
 %mem=16GB
 %NProcShared=4
 Will use up to    4 processors via shared memory.
 Copying data from "01-PbI2_GBL.chk" to current chk file "02-PbI2_GBL.chk"
 IOpt=  2 FromEx=T IUOpen= 4 IOptOp= 5 NList=   0 IFRang= 0 IUIn= 4 IUOut= 2.
 ----------------------------------------------------------------------
 # cam-b3lyp/gen pseudo=read TD=NStates=10 Geom=Check Guess=Read empiri
 caldispersion=gd3bj SCRF=(read)
 ----------------------------------------------------------------------
 1/29=2,38=1,40=2,172=1/1;
 2/12=2,40=1/2;
 3/5=7,11=9,14=-4,16=1,17=8,25=1,30=1,70=2203,74=-40,116=-2,124=41/1,2,3,8;
 4/5=1/1;
 5/5=2,38=6/2;
 8/6=1,10=1,108=10/1;
 9/41=10,42=1,70=2/14;
 6/7=2,8=2,9=2,10=2/1;
 99/5=1,9=1/99;
 --------
 PbI2_GBL
 --------
 Structure from the checkpoint file:  "02-PbI2_GBL.chk"
 Charge =  0 Multiplicity = 1
 Redundant internal coordinates found in file.  (old form).
 Pb,0,0.161279497,0.6297192558,0.0572194772
 I,0,1.7275988134,-0.2626860441,2.636636129
 I,0,2.0865986968,2.7978708585,-1.2032973616
 O,0,-1.5731276139,-1.3909427984,0.4389935176
 C,0,-1.5086098821,-2.5950067864,0.7028865806
 C,0,-0.2976485702,-3.4945980276,0.7811184243
 O,0,-2.6397848293,-3.2806436727,0.9701744961
 C,0,-0.9050345815,-4.9015531753,0.7599758559
 C,0,-2.3036180798,-4.6626023751,1.3367290788
 H,0,-3.0952058827,-5.3068377498,0.9158211182
 H,0,-2.3286244836,-4.7186480873,2.443773076
 H,0,-0.3347176423,-5.6407257865,1.3505558499
 H,0,-0.9795105527,-5.2696668793,-0.282287401
 H,0,0.2286018926,-3.2541876033,1.7307352767
 H,0,0.3975594247,-3.2686285958,-0.0461850448
 O,0,-1.9587754463,0.8469779234,-1.5870044934
 C,0,-2.5024859021,-0.1371518892,-2.0918479273
 C,0,-1.8820368522,-1.3252775575,-2.7931827246
 O,0,-3.8511018168,-0.247865455,-2.0776395961
 C,0,-3.0042674056,-2.3677114895,-2.7532664322
 C,0,-4.2545663495,-1.4825496356,-2.7597804202
 H,0,-5.1140962593,-1.891080452,-2.1997277344
 H,0,-4.5774093715,-1.202942489,-3.7832557088
 H,0,-2.989732854,-3.0720801996,-3.60422181
 H,0,-2.9582758915,-2.9510243255,-1.812576449
 H,0,-1.6536157268,-1.0024747838,-3.8325935792
 H,0,-0.9275560258,-1.6142945831,-2.3172755538
 O,0,1.1784762392,-1.3245020396,-1.276383911
 C,0,2.3469946021,-1.7283568325,-1.357248261
 C,0,3.6267971294,-1.0278690019,-0.9796915734
 O,0,2.585383407,-2.9710788897,-1.8096305967
 C,0,4.6997371927,-1.8753426225,-1.671765422
 C,0,4.0283006318,-3.2503868822,-1.7432861868
 H,0,4.2792729833,-3.8445339631,-2.6392576967
 H,0,4.1947677445,-3.8605977639,-0.8329385353
 H,0,5.6575745072,-1.9115841787,-1.1227815865
 H,0,4.8944263179,-1.4897386321,-2.6915861026
 H,0,3.6906270202,-1.0648711574,0.1313286801
 H,0,3.5873478108,0.0403049076,-1.2662450348
 O,0,-1.445945345,2.3148785209,1.1124163525
 C,0,-2.6802271325,2.2449559548,1.0717779445
 C,0,-3.5852780329,1.0713907759,1.3685166759
 O,0,-3.4008947946,3.3390412647,0.7589132695
 C,0,-4.9105783523,1.4970464565,0.7293096013
 C,0,-4.8332297171,3.02314316,0.8291309343
 H,0,-5.3202243755,3.5682563018,0.0011850632
 H,0,-5.2065202439,3.4125124289,1.7983032436
 H,0,-5.8031126891,1.0926725644,1.2399327873
 H,0,-4.9283288319,1.1788566312,-0.3309725704
 H,0,-3.6565264946,0.9957050803,2.4761540591
 H,0,-3.1507058816,0.1255503205,0.9956822219
 Recover connectivity data from disk.
                           ----------------------------
                           !    Current Parameters    !
                           ! (Angstroms and Degrees)  !
 --------------------------                            --------------------------
 ! Name  Definition              Value                                          !
 --------------------------------------------------------------------------------
 ! R1    R(1,2)                  3.1469                                         !
 ! R2    R(1,3)                  3.1617                                         !
 ! R3    R(1,4)                  2.6902                                         !
 ! R4    R(1,16)                 2.6917                                         !
 ! R5    R(1,28)                 2.5753                                         !
 ! R6    R(1,40)                 2.5566                                         !
 ! R7    R(4,5)                  1.2343                                         !
 ! R8    R(4,51)                 2.258                                          !
 ! R9    R(5,6)                  1.5106                                         !
 ! R10   R(5,7)                  1.3495                                         !
 ! R11   R(6,8)                  1.5326                                         !
 ! R12   R(6,14)                 1.112                                          !
 ! R13   R(6,15)                 1.104                                          !
 ! R14   R(7,9)                  1.4687                                         !
 ! R15   R(8,9)                  1.5316                                         !
 ! R16   R(8,12)                 1.1047                                         !
 ! R17   R(8,13)                 1.1079                                         !
 ! R18   R(9,10)                 1.104                                          !
 ! R19   R(9,11)                 1.1087                                         !
 ! R20   R(15,28)                2.4296                                         !
 ! R21   R(16,17)                1.2325                                         !
 ! R22   R(17,18)                1.5128                                         !
 ! R23   R(17,19)                1.3532                                         !
 ! R24   R(18,20)                1.5322                                         !
 ! R25   R(18,26)                1.1121                                         !
 ! R26   R(18,27)                1.105                                          !
 ! R27   R(19,21)                1.4672                                         !
 ! R28   R(19,49)                2.4994                                         !
 ! R29   R(20,21)                1.5319                                         !
 ! R30   R(20,24)                1.1047                                         !
 ! R31   R(20,25)                1.1078                                         !
 ! R32   R(21,22)                1.1042                                         !
 ! R33   R(21,23)                1.109                                          !
 ! R34   R(27,28)                2.367                                          !
 ! R35   R(28,29)                1.239                                          !
 ! R36   R(29,30)                1.507                                          !
 ! R37   R(29,31)                1.3438                                         !
 ! R38   R(30,32)                1.5324                                         !
 ! R39   R(30,38)                1.1135                                         !
 ! R40   R(30,39)                1.1066                                         !
 ! R41   R(31,33)                1.4712                                         !
 ! R42   R(32,33)                1.5319                                         !
 ! R43   R(32,36)                1.1046                                         !
 ! R44   R(32,37)                1.1075                                         !
 ! R45   R(33,34)                1.104                                          !
 ! R46   R(33,35)                1.1085                                         !
 ! R47   R(40,41)                1.2369                                         !
 ! R48   R(41,42)                1.5114                                         !
 ! R49   R(41,43)                1.3469                                         !
 ! R50   R(42,44)                1.5317                                         !
 ! R51   R(42,50)                1.1125                                         !
 ! R52   R(42,51)                1.1057                                         !
 ! R53   R(43,45)                1.4684                                         !
 ! R54   R(44,45)                1.5313                                         !
 ! R55   R(44,48)                1.1049                                         !
 ! R56   R(44,49)                1.1071                                         !
 ! R57   R(45,46)                1.1044                                         !
 ! R58   R(45,47)                1.1092                                         !
 ! A1    A(2,1,3)              102.6007                                         !
 ! A2    A(2,1,4)               89.517                                          !
 ! A3    A(2,1,16)             156.2913                                         !
 ! A4    A(2,1,28)              90.7261                                         !
 ! A5    A(2,1,40)              99.2949                                         !
 ! A6    A(3,1,4)              164.6353                                         !
 ! A7    A(3,1,16)             100.4127                                         !
 ! A8    A(3,1,28)              94.2088                                         !
 ! A9    A(3,1,40)              95.472                                          !
 ! A10   A(4,1,16)              68.8701                                         !
 ! A11   A(4,1,28)              76.0049                                         !
 ! A12   A(4,1,40)              91.7889                                         !
 ! A13   A(16,1,28)             93.2115                                         !
 ! A14   A(16,1,40)             72.769                                          !
 ! A15   A(28,1,40)            164.1973                                         !
 ! A16   A(1,4,5)              136.8321                                         !
 ! A17   A(1,4,51)              88.9093                                         !
 ! A18   A(5,4,51)             129.7143                                         !
 ! A19   A(4,5,6)              129.3387                                         !
 ! A20   A(4,5,7)              119.6136                                         !
 ! A21   A(6,5,7)              111.0476                                         !
 ! A22   A(5,6,8)              103.1963                                         !
 ! A23   A(5,6,14)             107.1493                                         !
 ! A24   A(5,6,15)             110.1278                                         !
 ! A25   A(8,6,14)             113.4413                                         !
 ! A26   A(8,6,15)             115.2854                                         !
 ! A27   A(14,6,15)            107.3184                                         !
 ! A28   A(5,7,9)              109.611                                          !
 ! A29   A(6,8,9)              102.326                                          !
 ! A30   A(6,8,12)             113.7203                                         !
 ! A31   A(6,8,13)             110.1605                                         !
 ! A32   A(9,8,12)             111.9931                                         !
 ! A33   A(9,8,13)             110.165                                          !
 ! A34   A(12,8,13)            108.38                                           !
 ! A35   A(7,9,8)              105.1781                                         !
 ! A36   A(7,9,10)             106.8464                                         !
 ! A37   A(7,9,11)             106.9531                                         !
 ! A38   A(8,9,10)             114.8433                                         !
 ! A39   A(8,9,11)             112.8738                                         !
 ! A40   A(10,9,11)            109.5728                                         !
 ! A41   A(6,15,28)            138.2132                                         !
 ! A42   A(1,16,17)            122.2237                                         !
 ! A43   A(16,17,18)           129.5021                                         !
 ! A44   A(16,17,19)           120.0448                                         !
 ! A45   A(18,17,19)           110.4478                                         !
 ! A46   A(17,18,20)           102.8187                                         !
 ! A47   A(17,18,26)           106.8327                                         !
 ! A48   A(17,18,27)           111.1016                                         !
 ! A49   A(20,18,26)           111.8556                                         !
 ! A50   A(20,18,27)           116.3265                                         !
 ! A51   A(26,18,27)           107.5198                                         !
 ! A52   A(17,19,21)           109.7569                                         !
 ! A53   A(17,19,49)           112.9649                                         !
 ! A54   A(21,19,49)           133.3761                                         !
 ! A55   A(18,20,21)           101.8035                                         !
 ! A56   A(18,20,24)           113.8331                                         !
 ! A57   A(18,20,25)           110.4839                                         !
 ! A58   A(21,20,24)           112.0777                                         !
 ! A59   A(21,20,25)           109.9826                                         !
 ! A60   A(24,20,25)           108.5302                                         !
 ! A61   A(19,21,20)           105.0603                                         !
 ! A62   A(19,21,22)           106.8334                                         !
 ! A63   A(19,21,23)           107.2752                                         !
 ! A64   A(20,21,22)           114.7945                                         !
 ! A65   A(20,21,23)           112.78                                           !
 ! A66   A(22,21,23)           109.5571                                         !
 ! A67   A(18,27,28)           157.8047                                         !
 ! A68   A(1,28,15)            102.5945                                         !
 ! A69   A(1,28,27)             88.2346                                         !
 ! A70   A(1,28,29)            130.8184                                         !
 ! A71   A(15,28,27)            80.7185                                         !
 ! A72   A(15,28,29)            94.3219                                         !
 ! A73   A(27,28,29)           140.4015                                         !
 ! A74   A(28,29,30)           129.2767                                         !
 ! A75   A(28,29,31)           119.3877                                         !
 ! A76   A(30,29,31)           111.3176                                         !
 ! A77   A(29,30,32)           102.9669                                         !
 ! A78   A(29,30,38)           106.4522                                         !
 ! A79   A(29,30,39)           110.7022                                         !
 ! A80   A(32,30,38)           113.0858                                         !
 ! A81   A(32,30,39)           116.2197                                         !
 ! A82   A(38,30,39)           107.0071                                         !
 ! A83   A(29,31,33)           109.5345                                         !
 ! A84   A(30,32,33)           102.1578                                         !
 ! A85   A(30,32,36)           113.6292                                         !
 ! A86   A(30,32,37)           110.2663                                         !
 ! A87   A(33,32,36)           111.9516                                         !
 ! A88   A(33,32,37)           110.278                                          !
 ! A89   A(36,32,37)           108.4592                                         !
 ! A90   A(31,33,32)           105.1634                                         !
 ! A91   A(31,33,34)           106.7707                                         !
 ! A92   A(31,33,35)           106.7877                                         !
 ! A93   A(32,33,34)           114.9188                                         !
 ! A94   A(32,33,35)           112.9515                                         !
 ! A95   A(34,33,35)           109.6396                                         !
 ! A96   A(1,40,41)            125.2036                                         !
 ! A97   A(40,41,42)           129.4174                                         !
 ! A98   A(40,41,43)           119.7098                                         !
 ! A99   A(42,41,43)           110.8495                                         !
 ! A100  A(41,42,44)           102.7326                                         !
 ! A101  A(41,42,50)           106.6571                                         !
 ! A102  A(41,42,51)           111.2641                                         !
 ! A103  A(44,42,50)           112.2704                                         !
 ! A104  A(44,42,51)           115.9177                                         !
 ! A105  A(50,42,51)           107.6202                                         !
 ! A106  A(41,43,45)           109.6356                                         !
 ! A107  A(42,44,45)           101.8903                                         !
 ! A108  A(42,44,48)           113.8509                                         !
 ! A109  A(42,44,49)           109.4908                                         !
 ! A110  A(45,44,48)           112.0492                                         !
 ! A111  A(45,44,49)           110.4663                                         !
 ! A112  A(48,44,49)           108.9318                                         !
 ! A113  A(43,45,44)           105.1024                                         !
 ! A114  A(43,45,46)           106.7427                                         !
 ! A115  A(43,45,47)           107.13                                           !
 ! A116  A(44,45,46)           114.8814                                         !
 ! A117  A(44,45,47)           112.9427                                         !
 ! A118  A(46,45,47)           109.4733                                         !
 ! A119  A(19,49,44)           145.7322                                         !
 ! A120  A(4,51,42)            158.7943                                         !
 ! D1    D(2,1,4,5)            -46.4052                                         !
 ! D2    D(2,1,4,51)           109.6356                                         !
 ! D3    D(3,1,4,5)             96.033                                          !
 ! D4    D(3,1,4,51)          -107.9262                                         !
 ! D5    D(16,1,4,5)           143.5671                                         !
 ! D6    D(16,1,4,51)          -60.3921                                         !
 ! D7    D(28,1,4,5)            44.4636                                         !
 ! D8    D(28,1,4,51)         -159.4956                                         !
 ! D9    D(40,1,4,5)          -145.6897                                         !
 ! D10   D(40,1,4,51)           10.3511                                         !
 ! D11   D(2,1,16,17)          -62.0677                                         !
 ! D12   D(3,1,16,17)          131.9796                                         !
 ! D13   D(4,1,16,17)          -36.5578                                         !
 ! D14   D(28,1,16,17)          37.1007                                         !
 ! D15   D(40,1,16,17)        -135.4688                                         !
 ! D16   D(2,1,28,15)           60.2166                                         !
 ! D17   D(2,1,28,27)          140.2994                                         !
 ! D18   D(2,1,28,29)          -46.9419                                         !
 ! D19   D(3,1,28,15)          162.9078                                         !
 ! D20   D(3,1,28,27)         -117.0094                                         !
 ! D21   D(3,1,28,29)           55.7493                                         !
 ! D22   D(4,1,28,15)          -29.1045                                         !
 ! D23   D(4,1,28,27)           50.9782                                         !
 ! D24   D(4,1,28,29)         -136.263                                          !
 ! D25   D(16,1,28,15)         -96.3938                                         !
 ! D26   D(16,1,28,27)         -16.311                                          !
 ! D27   D(16,1,28,29)         156.4477                                         !
 ! D28   D(40,1,28,15)         -69.4208                                         !
 ! D29   D(40,1,28,27)          10.6619                                         !
 ! D30   D(40,1,28,29)        -176.5793                                         !
 ! D31   D(2,1,40,41)         -120.9284                                         !
 ! D32   D(3,1,40,41)          135.3178                                         !
 ! D33   D(4,1,40,41)          -31.1252                                         !
 ! D34   D(16,1,40,41)          36.0886                                         !
 ! D35   D(28,1,40,41)           7.7854                                         !
 ! D36   D(1,4,5,6)             -7.5649                                         !
 ! D37   D(1,4,5,7)            172.5507                                         !
 ! D38   D(51,4,5,6)          -155.7074                                         !
 ! D39   D(51,4,5,7)            24.4083                                         !
 ! D40   D(1,4,51,42)          -26.536                                          !
 ! D41   D(5,4,51,42)          132.2926                                         !
 ! D42   D(4,5,6,8)           -164.94                                           !
 ! D43   D(4,5,6,14)            75.0622                                         !
 ! D44   D(4,5,6,15)           -41.3542                                         !
 ! D45   D(7,5,6,8)             14.9522                                         !
 ! D46   D(7,5,6,14)          -105.0456                                         !
 ! D47   D(7,5,6,15)           138.538                                          !
 ! D48   D(4,5,7,9)           -176.3809                                         !
 ! D49   D(6,5,7,9)              3.715                                          !
 ! D50   D(5,6,8,9)            -26.0968                                         !
 ! D51   D(5,6,8,12)          -147.0752                                         !
 ! D52   D(5,6,8,13)            91.0398                                         !
 ! D53   D(14,6,8,9)            89.4833                                         !
 ! D54   D(14,6,8,12)          -31.4951                                         !
 ! D55   D(14,6,8,13)         -153.3801                                         !
 ! D56   D(15,6,8,9)          -146.2071                                         !
 ! D57   D(15,6,8,12)           92.8145                                         !
 ! D58   D(15,6,8,13)          -29.0705                                         !
 ! D59   D(5,6,15,28)           36.6949                                         !
 ! D60   D(8,6,15,28)          152.9283                                         !
 ! D61   D(14,6,15,28)         -79.6157                                         !
 ! D62   D(5,7,9,8)            -21.0209                                         !
 ! D63   D(5,7,9,10)          -143.4997                                         !
 ! D64   D(5,7,9,11)            99.2272                                         !
 ! D65   D(6,8,9,7)             28.8915                                         !
 ! D66   D(6,8,9,10)           146.0531                                         !
 ! D67   D(6,8,9,11)           -87.3633                                         !
 ! D68   D(12,8,9,7)           151.0548                                         !
 ! D69   D(12,8,9,10)          -91.7836                                         !
 ! D70   D(12,8,9,11)           34.8                                            !
 ! D71   D(13,8,9,7)           -88.2419                                         !
 ! D72   D(13,8,9,10)           28.9197                                         !
 ! D73   D(13,8,9,11)          155.5033                                         !
 ! D74   D(6,15,28,1)            7.9674                                         !
 ! D75   D(6,15,28,27)         -78.1049                                         !
 ! D76   D(6,15,28,29)         141.4848                                         !
 ! D77   D(1,16,17,18)         -47.3297                                         !
 ! D78   D(1,16,17,19)         133.5933                                         !
 ! D79   D(16,17,18,20)        161.7596                                         !
 ! D80   D(16,17,18,26)        -80.3545                                         !
 ! D81   D(16,17,18,27)         36.6376                                         !
 ! D82   D(19,17,18,20)        -19.0932                                         !
 ! D83   D(19,17,18,26)         98.7928                                         !
 ! D84   D(19,17,18,27)       -144.2152                                         !
 ! D85   D(16,17,19,21)        178.7837                                         !
 ! D86   D(16,17,19,49)        -20.3503                                         !
 ! D87   D(18,17,19,21)         -0.4562                                         !
 ! D88   D(18,17,19,49)        160.4098                                         !
 ! D89   D(17,18,20,21)         29.3478                                         !
 ! D90   D(17,18,20,24)        150.1511                                         !
 ! D91   D(17,18,20,25)        -87.4438                                         !
 ! D92   D(26,18,20,21)        -84.9352                                         !
 ! D93   D(26,18,20,24)         35.8681                                         !
 ! D94   D(26,18,20,25)        158.2733                                         !
 ! D95   D(27,18,20,21)        150.985                                          !
 ! D96   D(27,18,20,24)        -88.2116                                         !
 ! D97   D(27,18,20,25)         34.1935                                         !
 ! D98   D(17,18,27,28)        -40.3843                                         !
 ! D99   D(20,18,27,28)       -157.5316                                         !
 ! D100  D(26,18,27,28)         76.187                                          !
 ! D101  D(17,19,21,20)         20.0199                                         !
 ! D102  D(17,19,21,22)        142.3729                                         !
 ! D103  D(17,19,21,23)       -100.2178                                         !
 ! D104  D(49,19,21,20)       -135.4476                                         !
 ! D105  D(49,19,21,22)        -13.0946                                         !
 ! D106  D(49,19,21,23)        104.3147                                         !
 ! D107  D(17,19,49,44)        -47.2556                                         !
 ! D108  D(21,19,49,44)        107.6313                                         !
 ! D109  D(18,20,21,19)        -30.4331                                         !
 ! D110  D(18,20,21,22)       -147.475                                          !
 ! D111  D(18,20,21,23)         86.0888                                         !
 ! D112  D(24,20,21,19)       -152.454                                          !
 ! D113  D(24,20,21,22)         90.5041                                         !
 ! D114  D(24,20,21,23)        -35.9321                                         !
 ! D115  D(25,20,21,19)         86.7216                                         !
 ! D116  D(25,20,21,22)        -30.3203                                         !
 ! D117  D(25,20,21,23)       -156.7565                                         !
 ! D118  D(18,27,28,1)          40.2704                                         !
 ! D119  D(18,27,28,15)        143.337                                          !
 ! D120  D(18,27,28,29)       -131.1227                                         !
 ! D121  D(1,28,29,30)         -16.7948                                         !
 ! D122  D(1,28,29,31)         161.5147                                         !
 ! D123  D(15,28,29,30)       -127.5408                                         !
 ! D124  D(15,28,29,31)         50.7688                                         !
 ! D125  D(27,28,29,30)        151.8052                                         !
 ! D126  D(27,28,29,31)        -29.8853                                         !
 ! D127  D(28,29,30,32)       -164.8141                                         !
 ! D128  D(28,29,30,38)         76.0066                                         !
 ! D129  D(28,29,30,39)        -39.9461                                         !
 ! D130  D(31,29,30,32)         16.767                                          !
 ! D131  D(31,29,30,38)       -102.4123                                         !
 ! D132  D(31,29,30,39)        141.635                                          !
 ! D133  D(28,29,31,33)       -176.7623                                         !
 ! D134  D(30,29,31,33)          1.8331                                         !
 ! D135  D(29,30,32,33)        -27.0548                                         !
 ! D136  D(29,30,32,36)       -147.8284                                         !
 ! D137  D(29,30,32,37)         90.1692                                         !
 ! D138  D(38,30,32,33)         87.4062                                         !
 ! D139  D(38,30,32,36)        -33.3674                                         !
 ! D140  D(38,30,32,37)       -155.3698                                         !
 ! D141  D(39,30,32,33)       -148.2375                                         !
 ! D142  D(39,30,32,36)         90.9889                                         !
 ! D143  D(39,30,32,37)        -31.0135                                         !
 ! D144  D(29,31,33,32)        -19.8628                                         !
 ! D145  D(29,31,33,34)       -142.3828                                         !
 ! D146  D(29,31,33,35)        100.3865                                         !
 ! D147  D(30,32,33,31)         28.8531                                         !
 ! D148  D(30,32,33,34)        145.953                                          !
 ! D149  D(30,32,33,35)        -87.2341                                         !
 ! D150  D(36,32,33,31)        150.7837                                         !
 ! D151  D(36,32,33,34)        -92.1164                                         !
 ! D152  D(36,32,33,35)         34.6965                                         !
 ! D153  D(37,32,33,31)        -88.3625                                         !
 ! D154  D(37,32,33,34)         28.7374                                         !
 ! D155  D(37,32,33,35)        155.5503                                         !
 ! D156  D(1,40,41,42)          48.2464                                         !
 ! D157  D(1,40,41,43)        -133.6833                                         !
 ! D158  D(40,41,42,44)       -163.214                                          !
 ! D159  D(40,41,42,50)         78.5466                                         !
 ! D160  D(40,41,42,51)        -38.5495                                         !
 ! D161  D(43,41,42,44)         18.5794                                         !
 ! D162  D(43,41,42,50)        -99.6601                                         !
 ! D163  D(43,41,42,51)        143.2438                                         !
 ! D164  D(40,41,43,45)       -177.6907                                         !
 ! D165  D(42,41,43,45)          0.7142                                         !
 ! D166  D(41,42,44,45)        -28.7681                                         !
 ! D167  D(41,42,44,48)       -149.6016                                         !
 ! D168  D(41,42,44,49)         88.2048                                         !
 ! D169  D(50,42,44,45)         85.4427                                         !
 ! D170  D(50,42,44,48)        -35.3908                                         !
 ! D171  D(50,42,44,49)       -157.5844                                         !
 ! D172  D(51,42,44,45)       -150.3148                                         !
 ! D173  D(51,42,44,48)         88.8517                                         !
 ! D174  D(51,42,44,49)        -33.3419                                         !
 ! D175  D(41,42,51,4)          32.7845                                         !
 ! D176  D(44,42,51,4)         149.6608                                         !
 ! D177  D(50,42,51,4)         -83.7237                                         !
 ! D178  D(41,43,45,44)        -19.9246                                         !
 ! D179  D(41,43,45,46)       -142.3545                                         !
 ! D180  D(41,43,45,47)        100.4516                                         !
 ! D181  D(42,44,45,43)         30.0325                                         !
 ! D182  D(42,44,45,46)        147.0376                                         !
 ! D183  D(42,44,45,47)        -86.4238                                         !
 ! D184  D(48,44,45,43)        152.1132                                         !
 ! D185  D(48,44,45,46)        -90.8817                                         !
 ! D186  D(48,44,45,47)         35.6568                                         !
 ! D187  D(49,44,45,43)        -86.2327                                         !
 ! D188  D(49,44,45,46)         30.7724                                         !
 ! D189  D(49,44,45,47)        157.3109                                         !
 ! D190  D(42,44,49,19)         13.7202                                         !
 ! D191  D(45,44,49,19)        125.1515                                         !
 ! D192  D(48,44,49,19)       -111.3702                                         !
 --------------------------------------------------------------------------------
 Stoichiometry    C16H24I2O8Pb
 Framework group  C1[X(C16H24I2O8Pb)]
 Deg. of freedom   147
 Full point group                 C1      NOp   1
 Largest Abelian subgroup         C1      NOp   1
 Largest concise Abelian subgroup C1      NOp   1
                         Standard orientation:                         
 ---------------------------------------------------------------------
 Center     Atomic      Atomic             Coordinates (Angstroms)
 Number     Number       Type             X           Y           Z
 ---------------------------------------------------------------------
      1         82           0       -0.172759   -0.639361    0.090056
      2         53           0       -1.748064    0.232283    2.671099
      3         53           0       -2.071169   -2.831858   -1.169164
      4          8           0        1.535845    1.403381    0.470676
      5          6           0        1.456077    2.606461    0.734888
      6          6           0        0.233709    3.490374    0.814424
      7          8           0        2.578578    3.306546    1.001287
      8          6           0        0.822916    4.905035    0.793028
      9          6           0        2.224988    4.683989    1.368448
     10          1           0        3.007831    5.338446    0.946954
     11          1           0        2.250289    4.740126    2.475481
     12          1           0        0.243675    5.636685    1.384290
     13          1           0        0.891689    5.274289   -0.249224
     14          1           0       -0.288530    3.243016    1.764470
     15          1           0       -0.459292    3.255644   -0.012291
     16          8           0        1.948405   -0.828978   -1.556157
     17          6           0        2.478939    0.162172   -2.061286
     18          6           0        1.842604    1.342356   -2.761796
     19          8           0        3.826030    0.290233   -2.048290
     20          6           0        2.951360    2.399141   -2.722683
     21          6           0        4.212942    1.530147   -2.730533
     22          1           0        5.067656    1.949593   -2.171180
     23          1           0        4.538416    1.254927   -3.754364
     24          1           0        2.926978    3.103437   -3.573473
     25          1           0        2.898728    2.981621   -1.781825
     26          1           0        1.617401    1.016852   -3.801066
     27          1           0        0.884919    1.618966   -2.284952
     28          8           0       -1.216251    1.301877   -1.242193
     29          6           0       -2.389944    1.690674   -1.321900
     30          6           0       -3.660277    0.973694   -0.943322
     31          8           0       -2.644725    2.930317   -1.773796
     32          6           0       -4.744672    1.807428   -1.634229
     33          6           0       -4.091056    3.191015   -1.706069
     34          1           0       -4.350479    3.782065   -2.601682
     35          1           0       -4.264527    3.798847   -0.795437
     36          1           0       -5.702392    1.831225   -1.084360
     37          1           0       -4.935319    1.419558   -2.653954
     38          1           0       -3.723557    1.009645    0.167764
     39          1           0       -3.607345   -0.093825   -1.230142
     40          8           0        1.456992   -2.303908    1.143416
     41          6           0        2.690234   -2.218096    1.101662
     42          6           0        3.580376   -1.033039    1.397824
     43          8           0        3.424636   -3.302750    0.787901
     44          6           0        4.910458   -1.441470    0.757311
     45          6           0        4.852851   -2.968456    0.856874
     46          1           0        5.346060   -3.507087    0.028365
     47          1           0        5.232012   -3.353186    1.825620
     48          1           0        5.798182   -1.025745    1.267204
     49          1           0        4.923137   -1.122862   -0.302918
     50          1           0        3.651663   -0.956668    2.505412
     51          1           0        3.133323   -0.092794    1.025592
 ---------------------------------------------------------------------
 Rotational constants (GHZ):           0.0978592           0.0837581           0.0685059
 General basis read from cards:  (5D, 7F)
 ======================================================================================================
                                       Pseudopotential Parameters
 ======================================================================================================
  Center     Atomic      Valence      Angular      Power
  Number     Number     Electrons     Momentum     of R      Exponent        Coefficient   SO-Coeffient
 ======================================================================================================
    1         82            4
                                      G and up 
                                                     0      376.5803786       -0.17896050    0.00000000
                                                     1       86.4840014      -54.39723370    0.00000000
                                                     2       26.6784276     -199.70617590    0.00000000
                                                     2        9.4261986      -79.12239410    0.00000000
                                                     2        2.7101719      -24.98690200    0.00000000
                                                     2        0.8792031       -4.43979390    0.00000000
                                      S - G
                                                     0      132.4248796        2.81153860    0.00000000
                                                     1       47.2376044       65.03672050    0.00000000
                                                     2       17.6312727      212.78685450    0.00000000
                                                     2        5.4744712       72.10531750    0.00000000
                                                     2        1.2634856       33.01409400    0.00000000
                                                     2        0.7651447       -5.77084610    0.00000000
                                      P - G
                                                     0       67.8966454        4.87549110    0.00000000
                                                     1       24.9898225       63.91481020    0.00000000
                                                     2       10.7052939      148.10643580    0.00000000
                                                     2        3.2792568       47.31063010    0.00000000
                                                     2        0.8452522       21.03067020    0.00000000
                                                     2        0.6416245       -7.09307720    0.00000000
                                      D - G
                                                     0       68.8336005        3.21613880    0.00000000
                                                     1       24.2815874       55.73860860    0.00000000
                                                     2        9.4532762      121.41683510    0.00000000
                                                     2        2.4788185       19.34560640    0.00000000
                                                     2        2.4789161       15.36751680    0.00000000
                                                     2        0.5551738        6.12987240    0.00000000
                                      F - G
                                                     0      128.1021322        4.13536820    0.00000000
                                                     1       54.8029154       67.51284460    0.00000000
                                                     2       24.5529308      258.73731070    0.00000000
                                                     2        8.1144792      113.24782640    0.00000000
                                                     2        1.6931290       34.16802010    0.00000000
                                                     2        0.7670500       -6.55319560    0.00000000
    2         53            7
                                      F and up 
                                                     0        1.0715702       -0.07476210    0.00000000
                                                     1       44.1936028      -30.08112240    0.00000000
                                                     2       12.9367609      -75.37227210    0.00000000
                                                     2        3.1956412      -22.05637580    0.00000000
                                                     2        0.8589806       -1.69795850    0.00000000
                                      S - F
                                                     0      127.9202670        2.93800360    0.00000000
                                                     1       78.6211465       41.24712670    0.00000000
                                                     2       36.5146237      287.86800950    0.00000000
                                                     2        9.9065681      114.37585060    0.00000000
                                                     2        1.9420086       37.65477140    0.00000000
                                      P - F
                                                     0       13.0035304        2.22226300    0.00000000
                                                     1       76.0331404       39.40908310    0.00000000
                                                     2       24.1961684      177.40750020    0.00000000
                                                     2        6.4053433       77.98894620    0.00000000
                                                     2        1.5851786       25.75476410    0.00000000
                                      D - F
                                                     0       40.4278108        7.05243600    0.00000000
                                                     1       28.9084375       33.30416350    0.00000000
                                                     2       15.6268936      186.94538750    0.00000000
                                                     2        4.1442856       71.96883610    0.00000000
                                                     2        0.9377235        9.36306570    0.00000000
    3         53            7
                                      F and up 
                                                     0        1.0715702       -0.07476210    0.00000000
                                                     1       44.1936028      -30.08112240    0.00000000
                                                     2       12.9367609      -75.37227210    0.00000000
                                                     2        3.1956412      -22.05637580    0.00000000
                                                     2        0.8589806       -1.69795850    0.00000000
                                      S - F
                                                     0      127.9202670        2.93800360    0.00000000
                                                     1       78.6211465       41.24712670    0.00000000
                                                     2       36.5146237      287.86800950    0.00000000
                                                     2        9.9065681      114.37585060    0.00000000
                                                     2        1.9420086       37.65477140    0.00000000
                                      P - F
                                                     0       13.0035304        2.22226300    0.00000000
                                                     1       76.0331404       39.40908310    0.00000000
                                                     2       24.1961684      177.40750020    0.00000000
                                                     2        6.4053433       77.98894620    0.00000000
                                                     2        1.5851786       25.75476410    0.00000000
                                      D - F
                                                     0       40.4278108        7.05243600    0.00000000
                                                     1       28.9084375       33.30416350    0.00000000
                                                     2       15.6268936      186.94538750    0.00000000
                                                     2        4.1442856       71.96883610    0.00000000
                                                     2        0.9377235        9.36306570    0.00000000
    4          8
                                   No pseudopotential on this center.
    5          6
                                   No pseudopotential on this center.
    6          6
                                   No pseudopotential on this center.
    7          8
                                   No pseudopotential on this center.
    8          6
                                   No pseudopotential on this center.
    9          6
                                   No pseudopotential on this center.
   10          1
                                   No pseudopotential on this center.
   11          1
                                   No pseudopotential on this center.
   12          1
                                   No pseudopotential on this center.
   13          1
                                   No pseudopotential on this center.
   14          1
                                   No pseudopotential on this center.
   15          1
                                   No pseudopotential on this center.
   16          8
                                   No pseudopotential on this center.
   17          6
                                   No pseudopotential on this center.
   18          6
                                   No pseudopotential on this center.
   19          8
                                   No pseudopotential on this center.
   20          6
                                   No pseudopotential on this center.
   21          6
                                   No pseudopotential on this center.
   22          1
                                   No pseudopotential on this center.
   23          1
                                   No pseudopotential on this center.
   24          1
                                   No pseudopotential on this center.
   25          1
                                   No pseudopotential on this center.
   26          1
                                   No pseudopotential on this center.
   27          1
                                   No pseudopotential on this center.
   28          8
                                   No pseudopotential on this center.
   29          6
                                   No pseudopotential on this center.
   30          6
                                   No pseudopotential on this center.
   31          8
                                   No pseudopotential on this center.
   32          6
                                   No pseudopotential on this center.
   33          6
                                   No pseudopotential on this center.
   34          1
                                   No pseudopotential on this center.
   35          1
                                   No pseudopotential on this center.
   36          1
                                   No pseudopotential on this center.
   37          1
                                   No pseudopotential on this center.
   38          1
                                   No pseudopotential on this center.
   39          1
                                   No pseudopotential on this center.
   40          8
                                   No pseudopotential on this center.
   41          6
                                   No pseudopotential on this center.
   42          6
                                   No pseudopotential on this center.
   43          8
                                   No pseudopotential on this center.
   44          6
                                   No pseudopotential on this center.
   45          6
                                   No pseudopotential on this center.
   46          1
                                   No pseudopotential on this center.
   47          1
                                   No pseudopotential on this center.
   48          1
                                   No pseudopotential on this center.
   49          1
                                   No pseudopotential on this center.
   50          1
                                   No pseudopotential on this center.
   51          1
                                   No pseudopotential on this center.
 ======================================================================================================
 There are   504 symmetry adapted cartesian basis functions of A   symmetry.
 There are   480 symmetry adapted basis functions of A   symmetry.
   480 basis functions,   996 primitive gaussians,   504 cartesian basis functions
   101 alpha electrons      101 beta electrons
       nuclear repulsion energy      2508.7944861205 Hartrees.
 NAtoms=   51 NActive=   51 NUniq=   51 SFac= 1.00D+00 NAtFMM=   60 NAOKFM=F Big=F
 Integral buffers will be    131072 words long.
 Raffenetti 1 integral format.
 Two-electron integral symmetry is turned on.
 Nuclear repulsion after empirical dispersion term =     2508.7332274377 Hartrees.
 Using the following non-standard input for PCM:
 eps=41.78
 --- end of non-standard input.
 ------------------------------------------------------------------------------
 Polarizable Continuum Model (PCM)
 =================================
 Model                : PCM.
 Atomic radii         : UFF (Universal Force Field).
 Polarization charges : Total charges.
 Charge compensation  : None.
 Solution method      : On-the-fly selection.
 Cavity type          : Scaled VdW (van der Waals Surface) (Alpha=1.100).
 Cavity algorithm     : GePol (No added spheres)
                        Default sphere list used, NSphG=   51.
                        Lebedev-Laikov grids with approx.  5.0 points / Ang**2.
                        Smoothing algorithm: York/Karplus (Gamma=1.0000).
                        Polarization charges: spherical gaussians, with
                                              point-specific exponents (IZeta= 3).
                        Self-potential: point-specific (ISelfS= 7).
                        Self-field    : sphere-specific E.n sum rule (ISelfD= 2).
 Solvent              : Water, Eps=  41.780000 Eps(inf)=   1.777849
 ------------------------------------------------------------------------------
 One-electron integrals computed using PRISM.
   1 Symmetry operations used in ECPInt.
 ECPInt:  NShTT=   26106 NPrTT=  192429 LenC2=   22518 LenP2D=   84869.
 LDataN:  DoStor=T MaxTD1= 6 Len=  172
 NBasis=   480 RedAO= T EigKep=  2.68D-03  NBF=   480
 NBsUse=   480 1.00D-06 EigRej= -1.00D+00 NBFU=   480
 Defaulting to unpruned grid for atomic number  82.
 Initial guess from the checkpoint file:  "02-PbI2_GBL.chk"
 B after Tr=     0.000000    0.000000    0.000000
         Rot=    1.000000   -0.000000    0.000000   -0.000000 Ang=   0.00 deg.
 Requested convergence on RMS density matrix=1.00D-08 within 128 cycles.
 Requested convergence on MAX density matrix=1.00D-06.
 Requested convergence on             energy=1.00D-06.
 No special actions if energy rises.
 Defaulting to unpruned grid for atomic number  82.
 Defaulting to unpruned grid for atomic number  82.
 Defaulting to unpruned grid for atomic number  82.
 Defaulting to unpruned grid for atomic number  82.
 Inv3:  Mode=1 IEnd=    52316928.
 Iteration    1 A*A^-1 deviation from unit magnitude is 3.66D-15 for   3182.
 Iteration    1 A*A^-1 deviation from orthogonality  is 2.44D-15 for   3313    489.
 Iteration    1 A^-1*A deviation from unit magnitude is 4.11D-15 for   3182.
 Iteration    1 A^-1*A deviation from orthogonality  is 4.55D-15 for   2499   2464.
 Error on total polarization charges =  0.02142
 SCF Done:  E(RCAM-B3LYP) =  -1251.94717066     A.U. after   12 cycles
            NFock= 12  Conv=0.37D-08     -V/T= 2.0224
 DoSCS=F DFT=T ScalE2(SS,OS)=  1.000000  1.000000
 ExpMin= 5.98D-02 ExpMax= 1.17D+04 ExpMxC= 4.01D+02 IAcc=3 IRadAn=         5 AccDes= 0.00D+00
 HarFok:  IExCor=  205 AccDes= 0.00D+00 IRadAn=         5 IDoV=-2 UseB2=F ITyADJ=14
 ICtDFT= 12500011 ScaDFX=  1.000000  1.000000  1.000000  1.000000
 Defaulting to unpruned grid for atomic number  82.
 GSVD:  LWork=        -768 too small for GESVD, short by        3240 words or        3240 for optimal perf.
 Range of M.O.s used for correlation:    25   480
 NBasis=   480 NAE=   101 NBE=   101 NFC=    24 NFV=     0
 NROrb=    456 NOA=    77 NOB=    77 NVA=   379 NVB=   379
 NEqPCM:  Using non-equilibrium solvation (IEInf=1, Eps=  41.7800, EpsInf=   1.7778)
 Inv3:  Mode=1 IEnd=    52316928.
 Iteration    1 A*A^-1 deviation from unit magnitude is 3.77D-15 for    256.
 Iteration    1 A*A^-1 deviation from orthogonality  is 1.89D-15 for   3364    631.
 Iteration    1 A^-1*A deviation from unit magnitude is 3.55D-15 for   1637.
 Iteration    1 A^-1*A deviation from orthogonality  is 5.13D-15 for   2482   2464.
 Orbital symmetries:
       Occupied  (A) (A) (A) (A) (A) (A) (A) (A) (A) (A) (A) (A)
                 (A) (A) (A) (A) (A) (A) (A) (A) (A) (A) (A) (A)
                 (A) (A) (A) (A) (A) (A) (A) (A) (A) (A) (A) (A)
                 (A) (A) (A) (A) (A) (A) (A) (A) (A) (A) (A) (A)
                 (A) (A) (A) (A) (A) (A) (A) (A) (A) (A) (A) (A)
                 (A) (A) (A) (A) (A) (A) (A) (A) (A) (A) (A) (A)
                 (A) (A) (A) (A) (A) (A) (A) (A) (A) (A) (A) (A)
                 (A) (A) (A) (A) (A) (A) (A) (A) (A) (A) (A) (A)
                 (A) (A) (A) (A) (A)
       Virtual   (A) (A) (A) (A) (A) (A) (A) (A) (A) (A) (A) (A)
                 (A) (A) (A) (A) (A) (A) (A) (A) (A) (A) (A) (A)
                 (A) (A) (A) (A) (A) (A) (A) (A) (A) (A) (A) (A)
                 (A) (A) (A) (A) (A) (A) (A) (A) (A) (A) (A) (A)
                 (A) (A) (A) (A) (A) (A) (A) (A) (A) (A) (A) (A)
                 (A) (A) (A) (A) (A) (A) (A) (A) (A) (A) (A) (A)
                 (A) (A) (A) (A) (A) (A) (A) (A) (A) (A) (A) (A)
                 (A) (A) (A) (A) (A) (A) (A) (A) (A) (A) (A) (A)
                 (A) (A) (A) (A) (A) (A) (A) (A) (A) (A) (A) (A)
                 (A) (A) (A) (A) (A) (A) (A) (A) (A) (A) (A) (A)
                 (A) (A) (A) (A) (A) (A) (A) (A) (A) (A) (A) (A)
                 (A) (A) (A) (A) (A) (A) (A) (A) (A) (A) (A) (A)
                 (A) (A) (A) (A) (A) (A) (A) (A) (A) (A) (A) (A)
                 (A) (A) (A) (A) (A) (A) (A) (A) (A) (A) (A) (A)
                 (A) (A) (A) (A) (A) (A) (A) (A) (A) (A) (A) (A)
                 (A) (A) (A) (A) (A) (A) (A) (A) (A) (A) (A) (A)
                 (A) (A) (A) (A) (A) (A) (A) (A) (A) (A) (A) (A)
                 (A) (A) (A) (A) (A) (A) (A) (A) (A) (A) (A) (A)
                 (A) (A) (A) (A) (A) (A) (A) (A) (A) (A) (A) (A)
                 (A) (A) (A) (A) (A) (A) (A) (A) (A) (A) (A) (A)
                 (A) (A) (A) (A) (A) (A) (A) (A) (A) (A) (A) (A)
                 (A) (A) (A) (A) (A) (A) (A) (A) (A) (A) (A) (A)
                 (A) (A) (A) (A) (A) (A) (A) (A) (A) (A) (A) (A)
                 (A) (A) (A) (A) (A) (A) (A) (A) (A) (A) (A) (A)
                 (A) (A) (A) (A) (A) (A) (A) (A) (A) (A) (A) (A)
                 (A) (A) (A) (A) (A) (A) (A) (A) (A) (A) (A) (A)
                 (A) (A) (A) (A) (A) (A) (A) (A) (A) (A) (A) (A)
                 (A) (A) (A) (A) (A) (A) (A) (A) (A) (A) (A) (A)
                 (A) (A) (A) (A) (A) (A) (A) (A) (A) (A) (A) (A)
                 (A) (A) (A) (A) (A) (A) (A) (A) (A) (A) (A) (A)
                 (A) (A) (A) (A) (A) (A) (A) (A) (A) (A) (A) (A)
                 (A) (A) (A) (A) (A) (A) (A)
    40 initial guesses have been made.
 Convergence on wavefunction:    0.001000000000000
 Iteration     1 Dimension    40 NMult     0 NNew     40
 CISAX will form    40 AO SS matrices at one time.
 Defaulting to unpruned grid for atomic number  82.
 Defaulting to unpruned grid for atomic number  82.
 Defaulting to unpruned grid for atomic number  82.
 Defaulting to unpruned grid for atomic number  82.
 New state      3 was old state      4
 New state      4 was old state      3
 New state      6 was old state      8
 New state      7 was old state     11
 New state      8 was old state     12
 New state     10 was old state      7
 Iteration     2 Dimension    60 NMult    40 NNew     20
 New state      3 was old state      4
 New state      4 was old state      3
 Iteration     3 Dimension    80 NMult    60 NNew     20
 Iteration     4 Dimension   100 NMult    80 NNew     20
 Iteration     5 Dimension   120 NMult   100 NNew     20
 Iteration     6 Dimension   140 NMult   120 NNew     20
 Iteration     7 Dimension   152 NMult   140 NNew     12
 Iteration     8 Dimension   158 NMult   152 NNew      6
 Iteration     9 Dimension   162 NMult   158 NNew      4
 ***********************************************************************
 Excited states from <AA,BB:AA,BB> singles matrix:
 ***********************************************************************
 
 Ground to excited state transition densities written to RWF  633
 Ground to excited state transition electric dipole moments (Au):
       state          X           Y           Z        Dip. S.      Osc.
         1         0.0466     -0.1816     -1.0322      1.1007      0.1386
         2        -1.1359      0.2065      0.3653      1.4663      0.1878
         3        -0.6801     -0.8299     -0.0222      1.1517      0.1500
         4        -0.2661     -0.4329     -0.2732      0.3328      0.0438
         5        -0.1872      0.3107     -0.0774      0.1376      0.0183
         6        -0.0324      0.0832     -0.1962      0.0465      0.0063
         7         0.0347      0.6734      0.5229      0.7280      0.0994
         8        -0.0626      0.0017     -0.1112      0.0163      0.0023
         9         0.0205      0.1286     -0.0960      0.0262      0.0037
        10        -0.0951     -0.2157     -0.2321      0.1095      0.0154
 Ground to excited state transition velocity dipole moments (Au):
       state          X           Y           Z        Dip. S.      Osc.
         1        -0.0030     -0.0020      0.1455      0.0212      0.0748
         2         0.1988     -0.0359     -0.0471      0.0430      0.1493
         3         0.1063      0.1315     -0.0111      0.0287      0.0979
         4         0.0655      0.0740      0.0269      0.0105      0.0354
         5         0.0438     -0.0735      0.0419      0.0091      0.0303
         6         0.0122     -0.0252      0.0444      0.0028      0.0090
         7         0.0008     -0.1246     -0.0847      0.0227      0.0739
         8         0.0161     -0.0092      0.0268      0.0011      0.0034
         9         0.0079     -0.0122      0.0246      0.0008      0.0026
        10         0.0127      0.0285      0.0396      0.0025      0.0080
 Ground to excited state transition magnetic dipole moments (Au):
       state          X           Y           Z
         1        -0.0378     -0.5987     -0.1400
         2         0.1051     -0.1347      0.2053
         3         0.1689     -0.2847      0.6967
         4        -0.1226     -0.1247      0.2474
         5        -0.0067      0.1764      0.1406
         6        -0.1585     -0.0420      0.0601
         7         0.2159      0.1490      0.1381
         8        -0.1149      0.0380      0.0882
         9         0.6221      0.5001     -0.1727
        10         0.5104      0.1960      0.0808
 Ground to excited state transition velocity quadrupole moments (Au):
       state          XX          YY          ZZ          XY          XZ          YZ
         1        -0.0772     -0.2391      0.2871     -0.3358     -0.2500     -0.0663
         2         0.3354      0.1401     -0.1384     -0.2101      0.0916     -0.1695
         3         0.0951     -0.1364      0.0690     -0.2912     -0.2636     -0.2655
         4        -0.2842     -0.0121      0.3020     -0.2264     -0.0681      0.1629
         5        -0.1444      0.0800      0.1651      0.1351     -0.0191     -0.1593
         6        -0.1189      0.2891     -0.1765      0.0380     -0.1483     -0.0251
         7        -0.0744      0.3709     -0.1748      0.2468      0.1318      0.1630
         8        -0.1251      0.1408      0.0273     -0.0094     -0.0706     -0.0503
         9        -0.1458      0.1459     -0.1185     -0.0575      0.2824      0.1126
        10         0.1232     -0.1670      0.1143     -0.2526     -0.0156     -0.1667
 <0|del|b> * <b|rxdel|0> + <0|del|b> * <b|delr+rdel|0>
 Rotatory Strengths (R) in cgs (10**-40 erg-esu-cm/Gauss)
       state          XX          YY          ZZ    R(velocity)    E-M Angle
         1      -128.3081     53.9095      2.9605    -23.8127      102.29
         2        15.3871    -59.5625    103.3259     19.7168       73.14
         3       -13.1723    -38.4294    -46.8781    -32.8266      102.02
         4        -6.4846     27.5580    -59.0746    -12.6671      109.98
         5        -4.9847    -12.4590     -8.6209     -8.6882      110.04
         6         2.9073     -2.2037      5.5243      2.0759       78.75
         7       -60.0201     16.4376    -60.3541    -34.6455      132.34
         8         1.8939     -0.0680     -1.2552      0.1902       88.02
         9       -14.0002      5.0147     -9.2550     -6.0802      103.42
        10        -1.3063     29.4549     23.0090     17.0525       56.81
 1/2[<0|r|b>*<b|rxdel|0> + (<0|rxdel|b>*<b|r|0>)*]
 Rotatory Strengths (R) in cgs (10**-40 erg-esu-cm/Gauss)
       state          XX          YY          ZZ     R(length)
         1         1.2460    -76.8870   -102.2079    -59.2830
         2        84.4130     19.6649    -53.0311     17.0156
         3        81.2448   -167.0562     10.9539    -24.9525
         4       -23.0587    -38.1655     47.8023     -4.4740
         5        -0.8866    -38.7631      7.6971    -10.6509
         6        -3.6256      2.4717      8.3342      2.3935
         7        -5.3053    -70.9577    -51.0554    -42.4395
         8        -5.0891     -0.0461      6.9384      0.6011
         9        -9.0153    -45.4958    -11.7153    -22.0755
        10        34.3150     29.9028     13.2677     25.8285
  1/2[<0|del|b>*<b|r|0> + (<0|r|b>*<b|del|0>)*] (Au)
       state          X           Y           Z        Dip. S.   Osc.(frdel)
         1        -0.0001      0.0004     -0.1502      0.1500      0.1000
         2        -0.2258     -0.0074     -0.0172      0.2504      0.1670
         3        -0.0723     -0.1091      0.0002      0.1811      0.1207
         4        -0.0174     -0.0320     -0.0073      0.0568      0.0379
         5        -0.0082     -0.0228     -0.0032      0.0343      0.0229
         6        -0.0004     -0.0021     -0.0087      0.0112      0.0075
         7         0.0000     -0.0839     -0.0443      0.1282      0.0855
         8        -0.0010     -0.0000     -0.0030      0.0040      0.0027
         9         0.0002     -0.0016     -0.0024      0.0038      0.0025
        10        -0.0012     -0.0061     -0.0092      0.0166      0.0110

 Excitation energies and oscillator strengths:
 
 Excited State   1:      Singlet-A      5.1398 eV  241.22 nm  f=0.1386  <S**2>=0.000
     100 ->104         0.10391
     101 ->102         0.56017
     101 ->103         0.21032
     101 ->104        -0.27923
 This state for optimization and/or second-order correction.
 Total Energy, E(TD-HF/TD-DFT) =  -1251.75828599    
 Copying the excited state density for this state as the 1-particle RhoCI density.
 
 Excited State   2:      Singlet-A      5.2276 eV  237.17 nm  f=0.1878  <S**2>=0.000
     101 ->102        -0.26548
     101 ->103         0.58723
     101 ->105         0.11362
     101 ->108         0.10885
 
 Excited State   3:      Singlet-A      5.3168 eV  233.19 nm  f=0.1500  <S**2>=0.000
     100 ->102        -0.25109
     100 ->104         0.12352
     101 ->102         0.13301
     101 ->103         0.18047
     101 ->104         0.54889
 
 Excited State   4:      Singlet-A      5.3694 eV  230.91 nm  f=0.0438  <S**2>=0.000
      97 ->102        -0.14618
      97 ->104         0.10257
     100 ->102         0.58732
     100 ->103         0.14364
     100 ->106         0.15256
     101 ->102         0.12559
     101 ->104         0.17898
 
 Excited State   5:      Singlet-A      5.4387 eV  227.97 nm  f=0.0183  <S**2>=0.000
      98 ->102        -0.41649
      98 ->104         0.12810
      99 ->102         0.51402
 
 Excited State   6:      Singlet-A      5.5236 eV  224.46 nm  f=0.0063  <S**2>=0.000
      97 ->102        -0.10177
      98 ->102         0.39089
      98 ->106         0.10155
      99 ->102         0.27895
      99 ->103         0.26620
      99 ->104         0.25183
      99 ->106         0.16876
     100 ->103        -0.13191
     100 ->104        -0.15037
 
 Excited State   7:      Singlet-A      5.5711 eV  222.55 nm  f=0.0994  <S**2>=0.000
      97 ->102         0.42883
      99 ->102         0.10738
      99 ->104         0.18952
     100 ->103         0.25470
     100 ->104         0.27878
     100 ->106         0.12313
     101 ->102        -0.13264
     101 ->104        -0.11770
 
 Excited State   8:      Singlet-A      5.6847 eV  218.10 nm  f=0.0023  <S**2>=0.000
      97 ->102        -0.14699
      98 ->102        -0.32561
      98 ->104         0.18295
      99 ->102        -0.27352
      99 ->103         0.24205
      99 ->104         0.38673
      99 ->107         0.11241
 
 Excited State   9:      Singlet-A      5.7242 eV  216.60 nm  f=0.0037  <S**2>=0.000
      94 ->103        -0.15028
      94 ->104        -0.10268
      94 ->107         0.15624
      94 ->108         0.10827
      95 ->105        -0.11126
      97 ->102        -0.25001
      97 ->103         0.14865
      97 ->104         0.18531
     100 ->103        -0.18265
     100 ->104         0.32966
     101 ->105         0.22556
 
 Excited State  10:      Singlet-A      5.7407 eV  215.97 nm  f=0.0154  <S**2>=0.000
      93 ->103        -0.14316
      93 ->106         0.10404
      95 ->105        -0.17251
      97 ->102         0.20529
      98 ->102        -0.10793
      98 ->103        -0.10905
      99 ->103         0.23346
     100 ->104        -0.26933
     101 ->105         0.30599
 SavETr:  write IOETrn=   770 NScale= 10 NData=  16 NLR=1 NState=   10 LETran=     190.

 **********************************************************************

            Population analysis using the SCF Density.

 **********************************************************************

 Orbital symmetries:
       Occupied  (A) (A) (A) (A) (A) (A) (A) (A) (A) (A) (A) (A)
                 (A) (A) (A) (A) (A) (A) (A) (A) (A) (A) (A) (A)
                 (A) (A) (A) (A) (A) (A) (A) (A) (A) (A) (A) (A)
                 (A) (A) (A) (A) (A) (A) (A) (A) (A) (A) (A) (A)
                 (A) (A) (A) (A) (A) (A) (A) (A) (A) (A) (A) (A)
                 (A) (A) (A) (A) (A) (A) (A) (A) (A) (A) (A) (A)
                 (A) (A) (A) (A) (A) (A) (A) (A) (A) (A) (A) (A)
                 (A) (A) (A) (A) (A) (A) (A) (A) (A) (A) (A) (A)
                 (A) (A) (A) (A) (A)
       Virtual   (A) (A) (A) (A) (A) (A) (A) (A) (A) (A) (A) (A)
                 (A) (A) (A) (A) (A) (A) (A) (A) (A) (A) (A) (A)
                 (A) (A) (A) (A) (A) (A) (A) (A) (A) (A) (A) (A)
                 (A) (A) (A) (A) (A) (A) (A) (A) (A) (A) (A) (A)
                 (A) (A) (A) (A) (A) (A) (A) (A) (A) (A) (A) (A)
                 (A) (A) (A) (A) (A) (A) (A) (A) (A) (A) (A) (A)
                 (A) (A) (A) (A) (A) (A) (A) (A) (A) (A) (A) (A)
                 (A) (A) (A) (A) (A) (A) (A) (A) (A) (A) (A) (A)
                 (A) (A) (A) (A) (A) (A) (A) (A) (A) (A) (A) (A)
                 (A) (A) (A) (A) (A) (A) (A) (A) (A) (A) (A) (A)
                 (A) (A) (A) (A) (A) (A) (A) (A) (A) (A) (A) (A)
                 (A) (A) (A) (A) (A) (A) (A) (A) (A) (A) (A) (A)
                 (A) (A) (A) (A) (A) (A) (A) (A) (A) (A) (A) (A)
                 (A) (A) (A) (A) (A) (A) (A) (A) (A) (A) (A) (A)
                 (A) (A) (A) (A) (A) (A) (A) (A) (A) (A) (A) (A)
                 (A) (A) (A) (A) (A) (A) (A) (A) (A) (A) (A) (A)
                 (A) (A) (A) (A) (A) (A) (A) (A) (A) (A) (A) (A)
                 (A) (A) (A) (A) (A) (A) (A) (A) (A) (A) (A) (A)
                 (A) (A) (A) (A) (A) (A) (A) (A) (A) (A) (A) (A)
                 (A) (A) (A) (A) (A) (A) (A) (A) (A) (A) (A) (A)
                 (A) (A) (A) (A) (A) (A) (A) (A) (A) (A) (A) (A)
                 (A) (A) (A) (A) (A) (A) (A) (A) (A) (A) (A) (A)
                 (A) (A) (A) (A) (A) (A) (A) (A) (A) (A) (A) (A)
                 (A) (A) (A) (A) (A) (A) (A) (A) (A) (A) (A) (A)
                 (A) (A) (A) (A) (A) (A) (A) (A) (A) (A) (A) (A)
                 (A) (A) (A) (A) (A) (A) (A) (A) (A) (A) (A) (A)
                 (A) (A) (A) (A) (A) (A) (A) (A) (A) (A) (A) (A)
                 (A) (A) (A) (A) (A) (A) (A) (A) (A) (A) (A) (A)
                 (A) (A) (A) (A) (A) (A) (A) (A) (A) (A) (A) (A)
                 (A) (A) (A) (A) (A) (A) (A) (A) (A) (A) (A) (A)
                 (A) (A) (A) (A) (A) (A) (A) (A) (A) (A) (A) (A)
                 (A) (A) (A) (A) (A) (A) (A)
 The electronic state is 1-A.
 Alpha  occ. eigenvalues --  -19.28321 -19.28022 -19.27694 -19.27477 -19.24335
 Alpha  occ. eigenvalues --  -19.23809 -19.23147 -19.23123 -10.42630 -10.42260
 Alpha  occ. eigenvalues --  -10.41821 -10.41796 -10.33346 -10.33208 -10.33085
 Alpha  occ. eigenvalues --  -10.32848 -10.28843 -10.28762 -10.28675 -10.28246
 Alpha  occ. eigenvalues --  -10.28246 -10.28162 -10.28123 -10.27547  -1.21167
 Alpha  occ. eigenvalues --   -1.20746  -1.20297  -1.20200  -1.12716  -1.12361
 Alpha  occ. eigenvalues --   -1.11919  -1.11722  -0.89849  -0.89653  -0.89572
 Alpha  occ. eigenvalues --   -0.89203  -0.82345  -0.82125  -0.81854  -0.81661
 Alpha  occ. eigenvalues --   -0.71434  -0.71160  -0.70845  -0.70591  -0.69988
 Alpha  occ. eigenvalues --   -0.69208  -0.65541  -0.64791  -0.64479  -0.64141
 Alpha  occ. eigenvalues --   -0.61287  -0.60059  -0.59942  -0.59727  -0.59569
 Alpha  occ. eigenvalues --   -0.59168  -0.59030  -0.58320  -0.56203  -0.55054
 Alpha  occ. eigenvalues --   -0.54443  -0.54058  -0.53151  -0.51395  -0.50962
 Alpha  occ. eigenvalues --   -0.50698  -0.50408  -0.50324  -0.50138  -0.49849
 Alpha  occ. eigenvalues --   -0.49476  -0.48897  -0.48524  -0.48242  -0.46380
 Alpha  occ. eigenvalues --   -0.45236  -0.44783  -0.44709  -0.44304  -0.43548
 Alpha  occ. eigenvalues --   -0.43429  -0.43336  -0.42901  -0.41881  -0.41788
 Alpha  occ. eigenvalues --   -0.41376  -0.41062  -0.38459  -0.38242  -0.37911
 Alpha  occ. eigenvalues --   -0.37583  -0.37378  -0.36752  -0.36497  -0.36172
 Alpha  occ. eigenvalues --   -0.31476  -0.29549  -0.29217  -0.28738  -0.28399
 Alpha  occ. eigenvalues --   -0.27136
 Alpha virt. eigenvalues --    0.00818   0.01163   0.01639   0.02972   0.04019
 Alpha virt. eigenvalues --    0.04623   0.05948   0.08107   0.09942   0.10352
 Alpha virt. eigenvalues --    0.11008   0.12461   0.12813   0.13244   0.13717
 Alpha virt. eigenvalues --    0.13796   0.14760   0.14907   0.15364   0.15602
 Alpha virt. eigenvalues --    0.15992   0.17045   0.17221   0.17632   0.17931
 Alpha virt. eigenvalues --    0.17946   0.18293   0.19264   0.19549   0.20184
 Alpha virt. eigenvalues --    0.20985   0.21146   0.21926   0.22840   0.23043
 Alpha virt. eigenvalues --    0.23721   0.23994   0.24361   0.24686   0.24832
 Alpha virt. eigenvalues --    0.25559   0.26079   0.26493   0.29284   0.30043
 Alpha virt. eigenvalues --    0.30161   0.30677   0.31105   0.31390   0.34924
 Alpha virt. eigenvalues --    0.35497   0.36730   0.37472   0.39508   0.39962
 Alpha virt. eigenvalues --    0.40089   0.41191   0.41402   0.43303   0.43903
 Alpha virt. eigenvalues --    0.44649   0.45087   0.46830   0.47105   0.48019
 Alpha virt. eigenvalues --    0.48607   0.49153   0.49280   0.50433   0.50651
 Alpha virt. eigenvalues --    0.50823   0.51574   0.52108   0.52725   0.52891
 Alpha virt. eigenvalues --    0.53052   0.53778   0.54507   0.55321   0.55470
 Alpha virt. eigenvalues --    0.56283   0.56420   0.56746   0.57138   0.57436
 Alpha virt. eigenvalues --    0.57690   0.58670   0.59073   0.59676   0.60446
 Alpha virt. eigenvalues --    0.60938   0.61284   0.61578   0.62100   0.62159
 Alpha virt. eigenvalues --    0.62974   0.63069   0.63328   0.64390   0.65253
 Alpha virt. eigenvalues --    0.65456   0.65730   0.66041   0.66908   0.67093
 Alpha virt. eigenvalues --    0.67719   0.68286   0.68571   0.69216   0.69461
 Alpha virt. eigenvalues --    0.69632   0.69777   0.70255   0.70416   0.71002
 Alpha virt. eigenvalues --    0.71132   0.71426   0.71979   0.72426   0.72448
 Alpha virt. eigenvalues --    0.72650   0.73269   0.73658   0.74557   0.74902
 Alpha virt. eigenvalues --    0.75682   0.77183   0.77597   0.78462   0.79021
 Alpha virt. eigenvalues --    0.79547   0.80606   0.81284   0.82355   0.84746
 Alpha virt. eigenvalues --    0.86383   0.86593   0.88429   0.88966   0.90385
 Alpha virt. eigenvalues --    0.91432   0.92420   0.93747   0.94784   0.94813
 Alpha virt. eigenvalues --    0.96648   0.98340   1.01168   1.02101   1.04017
 Alpha virt. eigenvalues --    1.05385   1.08253   1.09221   1.09796   1.11426
 Alpha virt. eigenvalues --    1.11725   1.13316   1.13795   1.14661   1.15058
 Alpha virt. eigenvalues --    1.16595   1.16769   1.17734   1.17991   1.19137
 Alpha virt. eigenvalues --    1.19732   1.20196   1.20755   1.21405   1.21742
 Alpha virt. eigenvalues --    1.22670   1.23012   1.23212   1.24769   1.25419
 Alpha virt. eigenvalues --    1.25797   1.26128   1.27409   1.28267   1.28995
 Alpha virt. eigenvalues --    1.29075   1.29878   1.31006   1.31406   1.32777
 Alpha virt. eigenvalues --    1.33124   1.35123   1.35964   1.38685   1.39128
 Alpha virt. eigenvalues --    1.39525   1.41165   1.44433   1.45279   1.45606
 Alpha virt. eigenvalues --    1.46341   1.46628   1.46879   1.47575   1.48054
 Alpha virt. eigenvalues --    1.50327   1.51104   1.52710   1.54250   1.58296
 Alpha virt. eigenvalues --    1.58424   1.59277   1.59524   1.59556   1.59862
 Alpha virt. eigenvalues --    1.60194   1.60741   1.63350   1.63612   1.64119
 Alpha virt. eigenvalues --    1.64254   1.65311   1.65799   1.65974   1.66080
 Alpha virt. eigenvalues --    1.66578   1.66987   1.67464   1.68554   1.68892
 Alpha virt. eigenvalues --    1.69912   1.70028   1.70732   1.71258   1.71530
 Alpha virt. eigenvalues --    1.72463   1.72877   1.73679   1.73911   1.74188
 Alpha virt. eigenvalues --    1.74831   1.75866   1.76934   1.77043   1.77628
 Alpha virt. eigenvalues --    1.78145   1.78459   1.78736   1.78884   1.79051
 Alpha virt. eigenvalues --    1.79589   1.79840   1.80002   1.80262   1.80401
 Alpha virt. eigenvalues --    1.80581   1.81035   1.81330   1.81683   1.82037
 Alpha virt. eigenvalues --    1.82633   1.83083   1.83485   1.83901   1.84145
 Alpha virt. eigenvalues --    1.85385   1.86674   1.88136   1.88733   1.92541
 Alpha virt. eigenvalues --    1.93070   1.93230   1.93841   1.97111   1.97440
 Alpha virt. eigenvalues --    1.97839   1.98320   1.98852   1.99264   2.00485
 Alpha virt. eigenvalues --    2.01433   2.04173   2.04473   2.05199   2.05695
 Alpha virt. eigenvalues --    2.08637   2.09170   2.11151   2.11829   2.12220
 Alpha virt. eigenvalues --    2.12781   2.13484   2.15450   2.16200   2.16724
 Alpha virt. eigenvalues --    2.16942   2.17265   2.18171   2.18901   2.19699
 Alpha virt. eigenvalues --    2.20319   2.23380   2.23814   2.24961   2.26352
 Alpha virt. eigenvalues --    2.27299   2.28609   2.29350   2.30102   2.33231
 Alpha virt. eigenvalues --    2.33522   2.34501   2.35417   2.39936   2.41550
 Alpha virt. eigenvalues --    2.42475   2.42803   2.45973   2.46478   2.47791
 Alpha virt. eigenvalues --    2.47926   2.48747   2.49986   2.52617   2.52885
 Alpha virt. eigenvalues --    2.54197   2.55068   2.55188   2.55476   2.57265
 Alpha virt. eigenvalues --    2.57456   2.58104   2.58356   2.63610   2.63738
 Alpha virt. eigenvalues --    2.65474   2.66352   2.68587   2.69132   2.69267
 Alpha virt. eigenvalues --    2.70030   2.72107   2.72441   2.73092   2.73336
 Alpha virt. eigenvalues --    2.73680   2.74199   2.75460   2.75827   2.89218
 Alpha virt. eigenvalues --    2.89959   2.90434   2.90757   3.01919   3.02228
 Alpha virt. eigenvalues --    3.02334   3.02608   3.05515   3.06063   3.06836
 Alpha virt. eigenvalues --    3.07731   3.12087   3.12840   3.13400   3.14027
 Alpha virt. eigenvalues --    3.17448   3.18456   3.18993   3.19364   3.36310
 Alpha virt. eigenvalues --    3.37099   3.37649   3.38001   3.49135   3.50707
 Alpha virt. eigenvalues --    3.51706   3.52547   3.56049   3.57486   3.58627
 Alpha virt. eigenvalues --    3.60070   9.00176  10.56589  10.85426
          Condensed to atoms (all electrons):
 Mulliken charges:
               1
     1  Pb   1.026629
     2  I   -0.692381
     3  I   -0.700492
     4  O   -0.326482
     5  C    0.244999
     6  C   -0.052005
     7  O   -0.239394
     8  C   -0.038214
     9  C    0.128422
    10  H    0.064386
    11  H    0.067140
    12  H    0.051364
    13  H    0.053088
    14  H    0.085892
    15  H    0.073641
    16  O   -0.324150
    17  C    0.233909
    18  C   -0.050706
    19  O   -0.239506
    20  C   -0.049155
    21  C    0.135973
    22  H    0.063093
    23  H    0.063857
    24  H    0.049553
    25  H    0.047175
    26  H    0.083917
    27  H    0.059711
    28  O   -0.343014
    29  C    0.261691
    30  C   -0.046541
    31  O   -0.235155
    32  C   -0.036850
    33  C    0.130696
    34  H    0.066215
    35  H    0.067887
    36  H    0.052982
    37  H    0.055294
    38  H    0.087907
    39  H    0.072272
    40  O   -0.339803
    41  C    0.241961
    42  C   -0.066063
    43  O   -0.232640
    44  C   -0.048177
    45  C    0.131352
    46  H    0.061055
    47  H    0.061647
    48  H    0.044716
    49  H    0.047956
    50  H    0.081900
    51  H    0.062446
 Sum of Mulliken charges =  -0.00000
 Mulliken charges with hydrogens summed into heavy atoms:
               1
     1  Pb   1.026629
     2  I   -0.692381
     3  I   -0.700492
     4  O   -0.326482
     5  C    0.244999
     6  C    0.107528
     7  O   -0.239394
     8  C    0.066237
     9  C    0.259948
    16  O   -0.324150
    17  C    0.233909
    18  C    0.092923
    19  O   -0.239506
    20  C    0.047573
    21  C    0.262923
    28  O   -0.343014
    29  C    0.261691
    30  C    0.113637
    31  O   -0.235155
    32  C    0.071426
    33  C    0.264799
    40  O   -0.339803
    41  C    0.241961
    42  C    0.078284
    43  O   -0.232640
    44  C    0.044495
    45  C    0.254054
 Electronic spatial extent (au):  <R**2>=          13222.9270
 Charge=             -0.0000 electrons
 Dipole moment (field-independent basis, Debye):
    X=             12.8476    Y=             20.8260    Z=             -6.7854  Tot=             25.3934
 Quadrupole moment (field-independent basis, Debye-Ang):
   XX=           -141.5811   YY=           -181.0020   ZZ=           -201.4528
   XY=            -25.4849   XZ=             14.3058   YZ=            -18.4999
 Traceless Quadrupole moment (field-independent basis, Debye-Ang):
   XX=             33.0975   YY=             -6.3234   ZZ=            -26.7742
   XY=            -25.4849   XZ=             14.3058   YZ=            -18.4999
 Octapole moment (field-independent basis, Debye-Ang**2):
  XXX=            -97.0083  YYY=             79.9858  ZZZ=            -21.7294  XYY=             27.9685
  XXY=             26.1662  XXZ=            -37.4371  XZZ=             33.2724  YZZ=            -19.1701
  YYZ=             82.3986  XYZ=             12.7628
 Hexadecapole moment (field-independent basis, Debye-Ang**3):
 XXXX=          -7597.3572 YYYY=          -6172.6277 ZZZZ=          -3494.8308 XXXY=           -397.1833
 XXXZ=            126.3141 YYYX=            253.3446 YYYZ=            263.4248 ZZZX=            -96.1651
 ZZZY=             68.7437 XXYY=          -2239.5503 XXZZ=          -1887.2778 YYZZ=          -1618.5725
 XXYZ=           -296.9412 YYXZ=             -1.3991 ZZXY=            110.8215
 N-N= 2.508733227438D+03 E-N=-7.929084019375D+03  KE= 1.224497746183D+03
 Unable to Open any file for archive entry.
 1\1\GINC-MPCL050\SP\RCAM-B3LYP TD-FC\Gen\C16H24I2O8Pb1\EDBA4025\12-Nov
 -2020\0\\# cam-b3lyp/gen pseudo=read TD=NStates=10 Geom=Check Guess=Re
 ad empiricaldispersion=gd3bj SCRF=(read)\\PbI2_GBL\\0,1\Pb,0,0.1612794
 97,0.6297192558,0.0572194772\I,0,1.7275988134,-0.2626860441,2.63663612
 9\I,0,2.0865986968,2.7978708585,-1.2032973616\O,0,-1.5731276139,-1.390
 9427984,0.4389935176\C,0,-1.5086098821,-2.5950067864,0.7028865806\C,0,
 -0.2976485702,-3.4945980276,0.7811184243\O,0,-2.6397848293,-3.28064367
 27,0.9701744961\C,0,-0.9050345815,-4.9015531753,0.7599758559\C,0,-2.30
 36180798,-4.6626023751,1.3367290788\H,0,-3.0952058827,-5.3068377498,0.
 9158211182\H,0,-2.3286244836,-4.7186480873,2.443773076\H,0,-0.33471764
 23,-5.6407257865,1.3505558499\H,0,-0.9795105527,-5.2696668793,-0.28228
 7401\H,0,0.2286018926,-3.2541876033,1.7307352767\H,0,0.3975594247,-3.2
 686285958,-0.0461850448\O,0,-1.9587754463,0.8469779234,-1.5870044934\C
 ,0,-2.5024859021,-0.1371518892,-2.0918479273\C,0,-1.8820368522,-1.3252
 775575,-2.7931827246\O,0,-3.8511018168,-0.247865455,-2.0776395961\C,0,
 -3.0042674056,-2.3677114895,-2.7532664322\C,0,-4.2545663495,-1.4825496
 356,-2.7597804202\H,0,-5.1140962593,-1.891080452,-2.1997277344\H,0,-4.
 5774093715,-1.202942489,-3.7832557088\H,0,-2.989732854,-3.0720801996,-
 3.60422181\H,0,-2.9582758915,-2.9510243255,-1.812576449\H,0,-1.6536157
 268,-1.0024747838,-3.8325935792\H,0,-0.9275560258,-1.6142945831,-2.317
 2755538\O,0,1.1784762392,-1.3245020396,-1.276383911\C,0,2.3469946021,-
 1.7283568325,-1.357248261\C,0,3.6267971294,-1.0278690019,-0.9796915734
 \O,0,2.585383407,-2.9710788897,-1.8096305967\C,0,4.6997371927,-1.87534
 26225,-1.671765422\C,0,4.0283006318,-3.2503868822,-1.7432861868\H,0,4.
 2792729833,-3.8445339631,-2.6392576967\H,0,4.1947677445,-3.8605977639,
 -0.8329385353\H,0,5.6575745072,-1.9115841787,-1.1227815865\H,0,4.89442
 63179,-1.4897386321,-2.6915861026\H,0,3.6906270202,-1.0648711574,0.131
 3286801\H,0,3.5873478108,0.0403049076,-1.2662450348\O,0,-1.445945345,2
 .3148785209,1.1124163525\C,0,-2.6802271325,2.2449559548,1.0717779445\C
 ,0,-3.5852780329,1.0713907759,1.3685166759\O,0,-3.4008947946,3.3390412
 647,0.7589132695\C,0,-4.9105783523,1.4970464565,0.7293096013\C,0,-4.83
 32297171,3.02314316,0.8291309343\H,0,-5.3202243755,3.5682563018,0.0011
 850632\H,0,-5.2065202439,3.4125124289,1.7983032436\H,0,-5.8031126891,1
 .0926725644,1.2399327873\H,0,-4.9283288319,1.1788566312,-0.3309725704\
 H,0,-3.6565264946,0.9957050803,2.4761540591\H,0,-3.1507058816,0.125550
 3205,0.9956822219\\Version=ES64L-G16RevC.01\State=1-A\HF=-1251.9471707
 \RMSD=3.708e-09\PG=C01 [X(C16H24I2O8Pb1)]\\@
 The archive entry for this job was punched.


 Until you make peace with who you are,
 you'll never be content with what you have.
                           -- Doris Mortman
 Job cpu time:       0 days  2 hours 14 minutes 20.1 seconds.
 Elapsed time:       0 days  0 hours 33 minutes 35.6 seconds.
 File lengths (MBytes):  RWF=   2495 Int=      0 D2E=      0 Chk=    536 Scr=      1
 Normal termination of Gaussian 16 at Thu Nov 12 00:57:51 2020.
