 Entering Gaussian System, Link 0=g16
 Input=02-PbI2_NMP_22800344.com
 Output=02-PbI2_NMP_22800344.log
 Initial command:
 /cm/shared/uniol/software/gaussian/g16.c01/g16/l1.exe "/scratch/22800344_edba4025/Gau-10003.inp" -scrdir="/scratch/22800344_edba4025/"
 Entering Link 1 = /cm/shared/uniol/software/gaussian/g16.c01/g16/l1.exe PID=     10004.
  
 Copyright (c) 1988-2019, Gaussian, Inc.  All Rights Reserved.
  
 This is part of the Gaussian(R) 16 program.  It is based on
 the Gaussian(R) 09 system (copyright 2009, Gaussian, Inc.),
 the Gaussian(R) 03 system (copyright 2003, Gaussian, Inc.),
 the Gaussian(R) 98 system (copyright 1998, Gaussian, Inc.),
 the Gaussian(R) 94 system (copyright 1995, Gaussian, Inc.),
 the Gaussian 92(TM) system (copyright 1992, Gaussian, Inc.),
 the Gaussian 90(TM) system (copyright 1990, Gaussian, Inc.),
 the Gaussian 88(TM) system (copyright 1988, Gaussian, Inc.),
 the Gaussian 86(TM) system (copyright 1986, Carnegie Mellon
 University), and the Gaussian 82(TM) system (copyright 1983,
 Carnegie Mellon University). Gaussian is a federally registered
 trademark of Gaussian, Inc.
  
 This software contains proprietary and confidential information,
 including trade secrets, belonging to Gaussian, Inc.
  
 This software is provided under written license and may be
 used, copied, transmitted, or stored only in accord with that
 written license.
  
 The following legend is applicable only to US Government
 contracts under FAR:
  
                    RESTRICTED RIGHTS LEGEND
  
 Use, reproduction and disclosure by the US Government is
 subject to restrictions as set forth in subparagraphs (a)
 and (c) of the Commercial Computer Software - Restricted
 Rights clause in FAR 52.227-19.
  
 Gaussian, Inc.
 340 Quinnipiac St., Bldg. 40, Wallingford CT 06492
  
  
 ---------------------------------------------------------------
 Warning -- This program may not be used in any manner that
 competes with the business of Gaussian, Inc. or will provide
 assistance to any competitor of Gaussian, Inc.  The licensee
 of this program is prohibited from giving any competitor of
 Gaussian, Inc. access to this program.  By using this program,
 the user acknowledges that Gaussian, Inc. is engaged in the
 business of creating and licensing software in the field of
 computational chemistry and represents and warrants to the
 licensee that it is not a competitor of Gaussian, Inc. and that
 it will not use this program in any manner prohibited above.
 ---------------------------------------------------------------
  

 Cite this work as:
 Gaussian 16, Revision C.01,
 M. J. Frisch, G. W. Trucks, H. B. Schlegel, G. E. Scuseria, 
 M. A. Robb, J. R. Cheeseman, G. Scalmani, V. Barone, 
 G. A. Petersson, H. Nakatsuji, X. Li, M. Caricato, A. V. Marenich, 
 J. Bloino, B. G. Janesko, R. Gomperts, B. Mennucci, H. P. Hratchian, 
 J. V. Ortiz, A. F. Izmaylov, J. L. Sonnenberg, D. Williams-Young, 
 F. Ding, F. Lipparini, F. Egidi, J. Goings, B. Peng, A. Petrone, 
 T. Henderson, D. Ranasinghe, V. G. Zakrzewski, J. Gao, N. Rega, 
 G. Zheng, W. Liang, M. Hada, M. Ehara, K. Toyota, R. Fukuda, 
 J. Hasegawa, M. Ishida, T. Nakajima, Y. Honda, O. Kitao, H. Nakai, 
 T. Vreven, K. Throssell, J. A. Montgomery, Jr., J. E. Peralta, 
 F. Ogliaro, M. J. Bearpark, J. J. Heyd, E. N. Brothers, K. N. Kudin, 
 V. N. Staroverov, T. A. Keith, R. Kobayashi, J. Normand, 
 K. Raghavachari, A. P. Rendell, J. C. Burant, S. S. Iyengar, 
 J. Tomasi, M. Cossi, J. M. Millam, M. Klene, C. Adamo, R. Cammi, 
 J. W. Ochterski, R. L. Martin, K. Morokuma, O. Farkas, 
 J. B. Foresman, and D. J. Fox, Gaussian, Inc., Wallingford CT, 2019.
 
 ******************************************
 Gaussian 16:  ES64L-G16RevC.01  3-Jul-2019
                11-Nov-2020 
 ******************************************
 %oldChk=01-PbI2_NMP
 %chk=02-PbI2_NMP
 %mem=16GB
 %NProcShared=4
 Will use up to    4 processors via shared memory.
 Copying data from "01-PbI2_NMP.chk" to current chk file "02-PbI2_NMP.chk"
 IOpt=  2 FromEx=T IUOpen= 4 IOptOp= 5 NList=   0 IFRang= 0 IUIn= 4 IUOut= 2.
 ----------------------------------------------------------------------
 # cam-b3lyp/gen pseudo=read TD=NStates=10 Geom=Check Guess=Read empiri
 caldispersion=gd3bj SCRF=(read)
 ----------------------------------------------------------------------
 1/29=2,38=1,40=2,172=1/1;
 2/12=2,40=1/2;
 3/5=7,11=9,14=-4,16=1,17=8,25=1,30=1,70=2203,74=-40,116=-2,124=41/1,2,3,8;
 4/5=1/1;
 5/5=2,38=6/2;
 8/6=1,10=1,108=10/1;
 9/41=10,42=1,70=2/14;
 6/7=2,8=2,9=2,10=2/1;
 99/5=1,9=1/99;
 --------
 PbI2_NMP
 --------
 Structure from the checkpoint file:  "02-PbI2_NMP.chk"
 Charge =  0 Multiplicity = 1
 Redundant internal coordinates found in file.  (old form).
 Pb,0,-0.0543987967,-0.3458382111,-0.4093412402
 I,0,3.295075607,-0.0176661607,-0.2908386714
 I,0,-0.5396029213,-2.4088137372,-3.0497322596
 O,0,-0.2307371622,0.5970885963,1.811491302
 C,0,0.2648106458,0.3299362231,2.939399891
 C,0,1.3534034003,-0.6667604238,3.27106225
 N,0,-0.1543792028,0.9244747753,4.0806145312
 C,0,1.7560225385,-0.299338003,4.7079259956
 C,0,0.5068025238,0.3993951049,5.2783219866
 C,0,-1.2870456814,1.8260844931,4.1453573464
 H,0,-1.6002481899,2.0551207187,3.1108943104
 H,0,-2.1311157365,1.3552689602,4.6917463333
 H,0,-1.0060987006,2.7619692214,4.6687583664
 H,0,0.906254868,-1.6791078782,3.182074113
 H,0,2.1689471432,-0.6090039743,2.5241875446
 H,0,2.057643197,-1.1705785315,5.3164619099
 H,0,2.6024771596,0.4153486755,4.6885381571
 H,0,0.7452707652,1.2258101801,5.9764376136
 H,0,-0.1764534353,-0.3055946566,5.8028791037
 O,0,-2.3836396579,-0.6349296688,0.2577266206
 C,0,-3.3618861429,-0.0444999934,-0.2741457354
 C,0,-3.5875103968,0.2359809933,-1.7461839106
 N,0,-4.4292182766,0.401347173,0.4281493876
 C,0,-4.7982833618,1.1833585127,-1.7640794083
 C,0,-5.5061959314,0.9182204284,-0.4201545953
 C,0,-4.5788396905,0.2197977051,1.8579495063
 H,0,-3.6165544104,-0.1474196454,2.2577184274
 H,0,-5.3790676248,-0.5161445877,2.0819831975
 H,0,-4.8407003514,1.1842784725,2.3372656809
 H,0,-3.7845458178,-0.7357389306,-2.2468052656
 H,0,-2.6743120373,0.6606768978,-2.2008053609
 H,0,-5.4707831,1.0182232077,-2.6245405598
 H,0,-4.451441734,2.2348783429,-1.8014727031
 H,0,-5.9423715365,1.8303197989,0.0332668613
 H,0,-6.3148144926,0.1587049833,-0.5041988022
 O,0,-1.1069793689,2.0476448642,-0.6372078452
 C,0,-0.6928789801,2.9371551008,0.147209356
 C,0,0.7493891013,3.3473719286,0.390445137
 N,0,-1.4957217459,3.7360847095,0.8980715021
 C,0,0.6798182875,4.1970518338,1.666797634
 C,0,-0.7585723278,4.7481784567,1.6579021914
 C,0,-2.9413196944,3.722414456,0.829111369
 H,0,-3.2464214479,2.8385463281,0.2423945405
 H,0,-3.3266254538,4.6423294167,0.3409184624
 H,0,-3.3744641584,3.6580647049,1.8480081596
 H,0,1.0751186703,3.9399396404,-0.4922896385
 H,0,1.4136268862,2.4646793391,0.4560594982
 H,0,1.434003531,5.0034681328,1.7041200427
 H,0,0.82487507,3.5493289912,2.5543697851
 H,0,-1.1936865811,4.855223037,2.6718405858
 H,0,-0.83380319,5.735455519,1.1489314416
 O,0,0.1021625235,-2.3511271783,0.8813649374
 C,0,-0.4217235998,-3.463562239,0.5804002768
 C,0,-1.8973431652,-3.8032807181,0.5659470189
 N,0,0.2859618442,-4.5458056785,0.2008793675
 C,0,-1.9163654528,-5.3370491982,0.4703487466
 C,0,-0.5613913868,-5.6798328317,-0.1780073525
 C,0,1.7093927582,-4.5196779487,-0.0682402878
 H,0,2.1087522102,-3.5463329234,0.2698317907
 H,0,1.8926922663,-4.6299608985,-1.1573747128
 H,0,2.2170894024,-5.3458857796,0.4678756186
 H,0,-2.3227820633,-3.3104623547,-0.334341335
 H,0,-2.4105048954,-3.3775220367,1.4471227975
 H,0,-2.7656569725,-5.7301423919,-0.1168270638
 H,0,-1.9656056549,-5.7794337973,1.4848965972
 H,0,-0.1219349169,-6.6279040563,0.189198696
 H,0,-0.6223649546,-5.7298154899,-1.2877792412
 Recover connectivity data from disk.
                           ----------------------------
                           !    Current Parameters    !
                           ! (Angstroms and Degrees)  !
 --------------------------                            --------------------------
 ! Name  Definition              Value                                          !
 --------------------------------------------------------------------------------
 ! R1    R(1,2)                  3.3676                                         !
 ! R2    R(1,3)                  3.3857                                         !
 ! R3    R(1,4)                  2.4192                                         !
 ! R4    R(1,20)                 2.4401                                         !
 ! R5    R(1,36)                 2.6246                                         !
 ! R6    R(1,52)                 2.3899                                         !
 ! R7    R(4,5)                  1.2606                                         !
 ! R8    R(5,6)                  1.5128                                         !
 ! R9    R(5,7)                  1.3534                                         !
 ! R10   R(6,8)                  1.5368                                         !
 ! R11   R(6,14)                 1.1103                                         !
 ! R12   R(6,15)                 1.1074                                         !
 ! R13   R(7,9)                  1.4654                                         !
 ! R14   R(7,10)                 1.4491                                         !
 ! R15   R(8,9)                  1.5408                                         !
 ! R16   R(8,16)                 1.1047                                         !
 ! R17   R(8,17)                 1.108                                          !
 ! R18   R(9,18)                 1.1078                                         !
 ! R19   R(9,19)                 1.1131                                         !
 ! R20   R(10,11)                1.1048                                         !
 ! R21   R(10,12)                1.1103                                         !
 ! R22   R(10,13)                1.1085                                         !
 ! R23   R(11,50)                2.8633                                         !
 ! R24   R(15,52)                3.1631                                         !
 ! R25   R(20,21)                1.2603                                         !
 ! R26   R(20,43)                3.5791                                         !
 ! R27   R(21,22)                1.5154                                         !
 ! R28   R(21,23)                1.3532                                         !
 ! R29   R(22,24)                1.5375                                         !
 ! R30   R(22,30)                1.1107                                         !
 ! R31   R(22,31)                1.105                                          !
 ! R32   R(23,25)                1.4651                                         !
 ! R33   R(23,26)                1.449                                          !
 ! R34   R(24,25)                1.5419                                         !
 ! R35   R(24,32)                1.1045                                         !
 ! R36   R(24,33)                1.1079                                         !
 ! R37   R(25,34)                1.108                                          !
 ! R38   R(25,35)                1.1126                                         !
 ! R39   R(26,27)                1.1048                                         !
 ! R40   R(26,28)                1.11                                           !
 ! R41   R(26,29)                1.1084                                         !
 ! R42   R(28,62)                4.7946                                         !
 ! R43   R(36,37)                1.2562                                         !
 ! R44   R(37,38)                1.5191                                         !
 ! R45   R(37,39)                1.3589                                         !
 ! R46   R(38,40)                1.5349                                         !
 ! R47   R(38,46)                1.112                                          !
 ! R48   R(38,47)                1.1066                                         !
 ! R49   R(39,41)                1.4646                                         !
 ! R50   R(39,42)                1.4473                                         !
 ! R51   R(40,41)                1.5404                                         !
 ! R52   R(40,48)                1.1048                                         !
 ! R53   R(40,49)                1.1083                                         !
 ! R54   R(41,50)                1.1085                                         !
 ! R55   R(41,51)                1.1133                                         !
 ! R56   R(42,43)                1.1039                                         !
 ! R57   R(42,44)                1.1104                                         !
 ! R58   R(42,45)                1.109                                          !
 ! R59   R(52,53)                1.2659                                         !
 ! R60   R(53,54)                1.5143                                         !
 ! R61   R(53,55)                1.3476                                         !
 ! R62   R(54,56)                1.5369                                         !
 ! R63   R(54,62)                1.111                                          !
 ! R64   R(54,63)                1.105                                          !
 ! R65   R(55,57)                1.4655                                         !
 ! R66   R(55,58)                1.4489                                         !
 ! R67   R(56,57)                1.5407                                         !
 ! R68   R(56,64)                1.1048                                         !
 ! R69   R(56,65)                1.1079                                         !
 ! R70   R(57,66)                1.1076                                         !
 ! R71   R(57,67)                1.1126                                         !
 ! R72   R(58,59)                1.1051                                         !
 ! R73   R(58,60)                1.1099                                         !
 ! R74   R(58,61)                1.1081                                         !
 ! A1    A(2,1,3)              103.2594                                         !
 ! A2    A(2,1,4)               90.1268                                         !
 ! A3    A(2,1,20)             162.0582                                         !
 ! A4    A(2,1,36)             108.2444                                         !
 ! A5    A(2,1,52)              89.8628                                         !
 ! A6    A(3,1,4)              160.559                                          !
 ! A7    A(3,1,20)              90.2412                                         !
 ! A8    A(3,1,36)             115.4981                                         !
 ! A9    A(3,1,52)              85.3716                                         !
 ! A10   A(4,1,20)              74.0754                                         !
 ! A11   A(4,1,36)              72.2429                                         !
 ! A12   A(4,1,52)              80.5626                                         !
 ! A13   A(20,1,36)             75.4604                                         !
 ! A14   A(20,1,52)             79.3668                                         !
 ! A15   A(1,4,5)              135.2456                                         !
 ! A16   A(4,5,6)              128.2194                                         !
 ! A17   A(4,5,7)              122.6582                                         !
 ! A18   A(6,5,7)              109.1145                                         !
 ! A19   A(5,6,8)              103.6503                                         !
 ! A20   A(5,6,14)             107.0594                                         !
 ! A21   A(5,6,15)             110.3488                                         !
 ! A22   A(8,6,14)             113.4814                                         !
 ! A23   A(8,6,15)             115.1628                                         !
 ! A24   A(14,6,15)            106.8641                                         !
 ! A25   A(5,7,9)              113.0818                                         !
 ! A26   A(5,7,10)             123.5794                                         !
 ! A27   A(9,7,10)             122.621                                          !
 ! A28   A(6,8,9)              104.0126                                         !
 ! A29   A(6,8,16)             113.4545                                         !
 ! A30   A(6,8,17)             109.7554                                         !
 ! A31   A(9,8,16)             112.0297                                         !
 ! A32   A(9,8,17)             109.472                                          !
 ! A33   A(16,8,17)            108.0453                                         !
 ! A34   A(7,9,8)              103.046                                          !
 ! A35   A(7,9,18)             110.1751                                         !
 ! A36   A(7,9,19)             109.582                                          !
 ! A37   A(8,9,18)             113.3946                                         !
 ! A38   A(8,9,19)             112.6375                                         !
 ! A39   A(18,9,19)            107.9171                                         !
 ! A40   A(7,10,11)            107.982                                          !
 ! A41   A(7,10,12)            110.6323                                         !
 ! A42   A(7,10,13)            110.3823                                         !
 ! A43   A(11,10,12)           109.4615                                         !
 ! A44   A(11,10,13)           109.8112                                         !
 ! A45   A(12,10,13)           108.5627                                         !
 ! A46   A(10,11,50)           107.821                                          !
 ! A47   A(6,15,52)             80.8139                                         !
 ! A48   A(1,20,21)            124.7538                                         !
 ! A49   A(1,20,43)             96.5438                                         !
 ! A50   A(21,20,43)            49.9419                                         !
 ! A51   A(20,21,22)           127.7485                                         !
 ! A52   A(20,21,23)           123.1978                                         !
 ! A53   A(22,21,23)           109.0089                                         !
 ! A54   A(21,22,24)           104.0403                                         !
 ! A55   A(21,22,30)           107.5963                                         !
 ! A56   A(21,22,31)           110.3495                                         !
 ! A57   A(24,22,30)           113.2121                                         !
 ! A58   A(24,22,31)           114.1551                                         !
 ! A59   A(30,22,31)           107.3025                                         !
 ! A60   A(21,23,25)           113.2983                                         !
 ! A61   A(21,23,26)           123.5221                                         !
 ! A62   A(25,23,26)           122.6568                                         !
 ! A63   A(22,24,25)           104.2085                                         !
 ! A64   A(22,24,32)           113.3554                                         !
 ! A65   A(22,24,33)           109.7974                                         !
 ! A66   A(25,24,32)           111.9477                                         !
 ! A67   A(25,24,33)           109.6549                                         !
 ! A68   A(32,24,33)           107.8322                                         !
 ! A69   A(23,25,24)           103.169                                          !
 ! A70   A(23,25,34)           110.0488                                         !
 ! A71   A(23,25,35)           109.7037                                         !
 ! A72   A(24,25,34)           113.3183                                         !
 ! A73   A(24,25,35)           112.6579                                         !
 ! A74   A(34,25,35)           107.864                                          !
 ! A75   A(23,26,27)           107.9836                                         !
 ! A76   A(23,26,28)           110.8949                                         !
 ! A77   A(23,26,29)           110.0034                                         !
 ! A78   A(27,26,28)           109.5424                                         !
 ! A79   A(27,26,29)           109.7865                                         !
 ! A80   A(28,26,29)           108.6216                                         !
 ! A81   A(26,28,62)            79.9297                                         !
 ! A82   A(1,36,37)            117.3437                                         !
 ! A83   A(36,37,38)           127.1703                                         !
 ! A84   A(36,37,39)           124.5123                                         !
 ! A85   A(38,37,39)           108.2817                                         !
 ! A86   A(37,38,40)           103.8633                                         !
 ! A87   A(37,38,46)           107.1525                                         !
 ! A88   A(37,38,47)           111.3447                                         !
 ! A89   A(40,38,46)           112.2354                                         !
 ! A90   A(40,38,47)           114.8                                            !
 ! A91   A(46,38,47)           107.2356                                         !
 ! A92   A(37,39,41)           113.302                                          !
 ! A93   A(37,39,42)           123.9328                                         !
 ! A94   A(41,39,42)           122.2735                                         !
 ! A95   A(38,40,41)           103.6261                                         !
 ! A96   A(38,40,48)           113.6553                                         !
 ! A97   A(38,40,49)           109.6628                                         !
 ! A98   A(41,40,48)           112.1169                                         !
 ! A99   A(41,40,49)           109.6294                                         !
 ! A100  A(48,40,49)           108.0708                                         !
 ! A101  A(39,41,40)           103.0462                                         !
 ! A102  A(39,41,50)           110.1023                                         !
 ! A103  A(39,41,51)           109.9758                                         !
 ! A104  A(40,41,50)           113.3152                                         !
 ! A105  A(40,41,51)           112.5213                                         !
 ! A106  A(50,41,51)           107.8186                                         !
 ! A107  A(39,42,43)           107.9961                                         !
 ! A108  A(39,42,44)           111.082                                          !
 ! A109  A(39,42,45)           110.2966                                         !
 ! A110  A(43,42,44)           109.4963                                         !
 ! A111  A(43,42,45)           109.5061                                         !
 ! A112  A(44,42,45)           108.4495                                         !
 ! A113  A(11,50,41)            95.8286                                         !
 ! A114  A(1,52,15)             82.02                                           !
 ! A115  A(1,52,53)            125.5793                                         !
 ! A116  A(15,52,53)           151.3852                                         !
 ! A117  A(52,53,54)           127.0623                                         !
 ! A118  A(52,53,55)           123.734                                          !
 ! A119  A(54,53,55)           109.2004                                         !
 ! A120  A(53,54,56)           103.6827                                         !
 ! A121  A(53,54,62)           106.3418                                         !
 ! A122  A(53,54,63)           111.007                                          !
 ! A123  A(56,54,62)           112.801                                          !
 ! A124  A(56,54,63)           115.3644                                         !
 ! A125  A(62,54,63)           107.3039                                         !
 ! A126  A(53,55,57)           112.9929                                         !
 ! A127  A(53,55,58)           123.6237                                         !
 ! A128  A(57,55,58)           122.2754                                         !
 ! A129  A(54,56,57)           103.7288                                         !
 ! A130  A(54,56,64)           113.4321                                         !
 ! A131  A(54,56,65)           110.004                                          !
 ! A132  A(57,56,64)           111.9154                                         !
 ! A133  A(57,56,65)           109.6094                                         !
 ! A134  A(64,56,65)           108.0867                                         !
 ! A135  A(55,57,56)           103.1525                                         !
 ! A136  A(55,57,66)           110.3189                                         !
 ! A137  A(55,57,67)           108.9261                                         !
 ! A138  A(56,57,66)           113.5689                                         !
 ! A139  A(56,57,67)           112.4299                                         !
 ! A140  A(66,57,67)           108.2996                                         !
 ! A141  A(55,58,59)           108.3064                                         !
 ! A142  A(55,58,60)           110.0421                                         !
 ! A143  A(55,58,61)           110.293                                          !
 ! A144  A(59,58,60)           109.1491                                         !
 ! A145  A(59,58,61)           110.0691                                         !
 ! A146  A(60,58,61)           108.9662                                         !
 ! A147  A(28,62,54)            95.4071                                         !
 ! A148  L(36,1,52,2,-1)       198.1072                                         !
 ! A149  L(20,43,42,2,-1)      148.7227                                         !
 ! A150  L(36,1,52,2,-2)       151.8754                                         !
 ! A151  L(20,43,42,2,-2)      215.4563                                         !
 ! D1    D(2,1,4,5)            -55.0441                                         !
 ! D2    D(3,1,4,5)             79.0132                                         !
 ! D3    D(20,1,4,5)           116.3374                                         !
 ! D4    D(36,1,4,5)          -164.193                                          !
 ! D5    D(52,1,4,5)            34.7958                                         !
 ! D6    D(2,1,20,21)          141.7882                                         !
 ! D7    D(2,1,20,43)           96.9292                                         !
 ! D8    D(3,1,20,21)          -78.9627                                         !
 ! D9    D(3,1,20,43)         -123.8216                                         !
 ! D10   D(4,1,20,21)          112.68                                           !
 ! D11   D(4,1,20,43)           67.8211                                         !
 ! D12   D(36,1,20,21)          37.3734                                         !
 ! D13   D(36,1,20,43)          -7.4855                                         !
 ! D14   D(52,1,20,21)        -164.2077                                         !
 ! D15   D(52,1,20,43)         150.9333                                         !
 ! D16   D(2,1,36,37)          -48.1675                                         !
 ! D17   D(3,1,36,37)         -163.3041                                         !
 ! D18   D(4,1,36,37)           35.9138                                         !
 ! D19   D(20,1,36,37)         113.5232                                         !
 ! D20   D(2,1,52,15)           43.1787                                         !
 ! D21   D(2,1,52,53)         -128.5639                                         !
 ! D22   D(3,1,52,15)          146.4937                                         !
 ! D23   D(3,1,52,53)          -25.2489                                         !
 ! D24   D(4,1,52,15)          -46.9726                                         !
 ! D25   D(4,1,52,53)          141.2848                                         !
 ! D26   D(20,1,52,15)        -122.3892                                         !
 ! D27   D(20,1,52,53)          65.8682                                         !
 ! D28   D(1,4,5,6)              8.3174                                         !
 ! D29   D(1,4,5,7)           -170.555                                          !
 ! D30   D(4,5,6,8)            166.6693                                         !
 ! D31   D(4,5,6,14)           -73.1036                                         !
 ! D32   D(4,5,6,15)            42.8384                                         !
 ! D33   D(7,5,6,8)            -14.3354                                         !
 ! D34   D(7,5,6,14)           105.8916                                         !
 ! D35   D(7,5,6,15)          -138.1663                                         !
 ! D36   D(4,5,7,9)            176.4767                                         !
 ! D37   D(4,5,7,10)             5.9756                                         !
 ! D38   D(6,5,7,9)             -2.5857                                         !
 ! D39   D(6,5,7,10)          -173.0868                                         !
 ! D40   D(5,6,8,9)             24.4651                                         !
 ! D41   D(5,6,8,16)           146.4494                                         !
 ! D42   D(5,6,8,17)           -92.5795                                         !
 ! D43   D(14,6,8,9)           -91.2979                                         !
 ! D44   D(14,6,8,16)           30.6864                                         !
 ! D45   D(14,6,8,17)          151.6575                                         !
 ! D46   D(15,6,8,9)           145.0921                                         !
 ! D47   D(15,6,8,16)          -92.9237                                         !
 ! D48   D(15,6,8,17)           28.0475                                         !
 ! D49   D(5,6,15,52)          -79.6888                                         !
 ! D50   D(8,6,15,52)          163.4184                                         !
 ! D51   D(14,6,15,52)          36.3754                                         !
 ! D52   D(5,7,9,8)             18.2749                                         !
 ! D53   D(5,7,9,18)           139.5645                                         !
 ! D54   D(5,7,9,19)          -101.8429                                         !
 ! D55   D(10,7,9,8)          -171.12                                           !
 ! D56   D(10,7,9,18)          -49.8304                                         !
 ! D57   D(10,7,9,19)           68.7622                                         !
 ! D58   D(5,7,10,11)           -9.5639                                         !
 ! D59   D(5,7,10,12)          110.2047                                         !
 ! D60   D(5,7,10,13)         -129.6117                                         !
 ! D61   D(9,7,10,11)         -179.1796                                         !
 ! D62   D(9,7,10,12)          -59.411                                          !
 ! D63   D(9,7,10,13)           60.7727                                         !
 ! D64   D(6,8,9,7)            -25.7431                                         !
 ! D65   D(6,8,9,18)          -144.8201                                         !
 ! D66   D(6,8,9,19)            92.2512                                         !
 ! D67   D(16,8,9,7)          -148.6666                                         !
 ! D68   D(16,8,9,18)           92.2564                                         !
 ! D69   D(16,8,9,19)          -30.6722                                         !
 ! D70   D(17,8,9,7)            91.4985                                         !
 ! D71   D(17,8,9,18)          -27.5785                                         !
 ! D72   D(17,8,9,19)         -150.5072                                         !
 ! D73   D(7,10,11,50)        -115.9412                                         !
 ! D74   D(12,10,11,50)        123.5543                                         !
 ! D75   D(13,10,11,50)          4.4651                                         !
 ! D76   D(10,11,50,41)        137.1219                                         !
 ! D77   D(6,15,52,1)          110.2024                                         !
 ! D78   D(6,15,52,53)         -83.9145                                         !
 ! D79   D(1,20,21,22)          40.453                                          !
 ! D80   D(1,20,21,23)        -142.2542                                         !
 ! D81   D(43,20,21,22)        106.7394                                         !
 ! D82   D(43,20,21,23)        -75.9677                                         !
 ! D83   D(1,20,42,39)         -19.313                                          !
 ! D84   D(1,20,42,44)          97.8645                                         !
 ! D85   D(1,20,42,45)        -129.1176                                         !
 ! D86   D(21,20,42,39)       -148.9426                                         !
 ! D87   D(21,20,42,44)        -31.7651                                         !
 ! D88   D(21,20,42,45)        101.2528                                         !
 ! D89   D(20,21,22,24)       -170.3826                                         !
 ! D90   D(20,21,22,30)         69.2511                                         !
 ! D91   D(20,21,22,31)        -47.5192                                         !
 ! D92   D(23,21,22,24)         12.0131                                         !
 ! D93   D(23,21,22,30)       -108.3532                                         !
 ! D94   D(23,21,22,31)        134.8766                                         !
 ! D95   D(20,21,23,25)       -173.4809                                         !
 ! D96   D(20,21,23,26)         -1.5914                                         !
 ! D97   D(22,21,23,25)          4.2554                                         !
 ! D98   D(22,21,23,26)        176.1448                                         !
 ! D99   D(21,22,24,25)        -22.3734                                         !
 ! D100  D(21,22,24,32)       -144.3315                                         !
 ! D101  D(21,22,24,33)         95.0076                                         !
 ! D102  D(30,22,24,25)         94.1337                                         !
 ! D103  D(30,22,24,32)        -27.8244                                         !
 ! D104  D(30,22,24,33)       -148.4853                                         !
 ! D105  D(31,22,24,25)       -142.7051                                         !
 ! D106  D(31,22,24,32)         95.3368                                         !
 ! D107  D(31,22,24,33)        -25.324                                          !
 ! D108  D(21,23,25,24)        -18.5375                                         !
 ! D109  D(21,23,25,34)       -139.7451                                         !
 ! D110  D(21,23,25,35)        101.7296                                         !
 ! D111  D(26,23,25,24)        169.4931                                         !
 ! D112  D(26,23,25,34)         48.2855                                         !
 ! D113  D(26,23,25,35)        -70.2398                                         !
 ! D114  D(21,23,26,27)         10.6829                                         !
 ! D115  D(21,23,26,28)       -109.3411                                         !
 ! D116  D(21,23,26,29)        130.4794                                         !
 ! D117  D(25,23,26,27)       -178.1707                                         !
 ! D118  D(25,23,26,28)         61.8054                                         !
 ! D119  D(25,23,26,29)        -58.3742                                         !
 ! D120  D(22,24,25,23)         24.5027                                         !
 ! D121  D(22,24,25,34)        143.466                                          !
 ! D122  D(22,24,25,35)        -93.7196                                         !
 ! D123  D(32,24,25,23)        147.3858                                         !
 ! D124  D(32,24,25,34)        -93.6509                                         !
 ! D125  D(32,24,25,35)         29.1635                                         !
 ! D126  D(33,24,25,23)        -92.9768                                         !
 ! D127  D(33,24,25,34)         25.9865                                         !
 ! D128  D(33,24,25,35)        148.8009                                         !
 ! D129  D(23,26,28,62)         62.2901                                         !
 ! D130  D(27,26,28,62)        -56.8001                                         !
 ! D131  D(29,26,28,62)       -176.7111                                         !
 ! D132  D(26,28,62,54)        101.6569                                         !
 ! D133  D(1,36,37,38)          53.0049                                         !
 ! D134  D(1,36,37,39)        -129.4283                                         !
 ! D135  D(36,37,38,40)       -166.2753                                         !
 ! D136  D(36,37,38,46)         74.7724                                         !
 ! D137  D(36,37,38,47)        -42.1989                                         !
 ! D138  D(39,37,38,40)         15.8361                                         !
 ! D139  D(39,37,38,46)       -103.1162                                         !
 ! D140  D(39,37,38,47)        139.9125                                         !
 ! D141  D(36,37,39,41)       -176.1303                                         !
 ! D142  D(36,37,39,42)         -4.0321                                         !
 ! D143  D(38,37,39,41)          1.828                                          !
 ! D144  D(38,37,39,42)        173.9262                                         !
 ! D145  D(37,38,40,41)        -26.0999                                         !
 ! D146  D(37,38,40,48)       -148.0461                                         !
 ! D147  D(37,38,40,49)         90.8805                                         !
 ! D148  D(46,38,40,41)         89.3082                                         !
 ! D149  D(46,38,40,48)        -32.638                                          !
 ! D150  D(46,38,40,49)       -153.7114                                         !
 ! D151  D(47,38,40,41)       -147.9043                                         !
 ! D152  D(47,38,40,48)         90.1495                                         !
 ! D153  D(47,38,40,49)        -30.9239                                         !
 ! D154  D(37,39,41,40)        -18.5717                                         !
 ! D155  D(37,39,41,50)       -139.7324                                         !
 ! D156  D(37,39,41,51)        101.5985                                         !
 ! D157  D(42,39,41,40)        169.1813                                         !
 ! D158  D(42,39,41,50)         48.0207                                         !
 ! D159  D(42,39,41,51)        -70.6484                                         !
 ! D160  D(37,39,42,43)         11.3768                                         !
 ! D161  D(37,39,42,44)       -108.7102                                         !
 ! D162  D(37,39,42,45)        131.0114                                         !
 ! D163  D(41,39,42,43)       -177.2114                                         !
 ! D164  D(41,39,42,44)         62.7015                                         !
 ! D165  D(41,39,42,45)        -57.5768                                         !
 ! D166  D(38,40,41,39)         26.9006                                         !
 ! D167  D(38,40,41,50)        145.8504                                         !
 ! D168  D(38,40,41,51)        -91.5048                                         !
 ! D169  D(48,40,41,39)        149.8679                                         !
 ! D170  D(48,40,41,50)        -91.1824                                         !
 ! D171  D(48,40,41,51)         31.4625                                         !
 ! D172  D(49,40,41,39)        -90.1031                                         !
 ! D173  D(49,40,41,50)         28.8466                                         !
 ! D174  D(49,40,41,51)        151.4914                                         !
 ! D175  D(39,41,50,11)         41.2308                                         !
 ! D176  D(40,41,50,11)        -73.5718                                         !
 ! D177  D(51,41,50,11)        161.2144                                         !
 ! D178  D(1,52,53,54)         -69.1107                                         !
 ! D179  D(1,52,53,55)         110.1529                                         !
 ! D180  D(15,52,53,54)        128.1656                                         !
 ! D181  D(15,52,53,55)        -52.5707                                         !
 ! D182  D(52,53,54,56)       -166.6353                                         !
 ! D183  D(52,53,54,62)         74.2193                                         !
 ! D184  D(52,53,54,63)        -42.1801                                         !
 ! D185  D(55,53,54,56)         14.0132                                         !
 ! D186  D(55,53,54,62)       -105.1322                                         !
 ! D187  D(55,53,54,63)        138.4684                                         !
 ! D188  D(52,53,55,57)       -176.1702                                         !
 ! D189  D(52,53,55,58)         -7.9886                                         !
 ! D190  D(54,53,55,57)          3.2076                                         !
 ! D191  D(54,53,55,58)        171.3891                                         !
 ! D192  D(53,54,56,57)        -24.4537                                         !
 ! D193  D(53,54,56,64)       -146.097                                          !
 ! D194  D(53,54,56,65)         92.714                                          !
 ! D195  D(62,54,56,57)         90.1587                                         !
 ! D196  D(62,54,56,64)        -31.4846                                         !
 ! D197  D(62,54,56,65)       -152.6736                                         !
 ! D198  D(63,54,56,57)       -146.0364                                         !
 ! D199  D(63,54,56,64)         92.3203                                         !
 ! D200  D(63,54,56,65)        -28.8687                                         !
 ! D201  D(53,54,62,28)       -118.7223                                         !
 ! D202  D(56,54,62,28)        128.282                                          !
 ! D203  D(63,54,62,28)          0.1351                                         !
 ! D204  D(53,55,57,56)        -18.9375                                         !
 ! D205  D(53,55,57,66)       -140.5651                                         !
 ! D206  D(53,55,57,67)        100.6893                                         !
 ! D207  D(58,55,57,56)        172.6995                                         !
 ! D208  D(58,55,57,66)         51.072                                          !
 ! D209  D(58,55,57,67)        -67.6736                                         !
 ! D210  D(53,55,58,59)         10.3642                                         !
 ! D211  D(53,55,58,60)       -108.8764                                         !
 ! D212  D(53,55,58,61)        130.8751                                         !
 ! D213  D(57,55,58,59)        177.4792                                         !
 ! D214  D(57,55,58,60)         58.2386                                         !
 ! D215  D(57,55,58,61)        -62.0099                                         !
 ! D216  D(54,56,57,55)         26.0956                                         !
 ! D217  D(54,56,57,66)        145.5015                                         !
 ! D218  D(54,56,57,67)        -91.0853                                         !
 ! D219  D(64,56,57,55)        148.7472                                         !
 ! D220  D(64,56,57,66)        -91.847                                          !
 ! D221  D(64,56,57,67)         31.5663                                         !
 ! D222  D(65,56,57,55)        -91.3473                                         !
 ! D223  D(65,56,57,66)         28.0585                                         !
 ! D224  D(65,56,57,67)        151.4717                                         !
 --------------------------------------------------------------------------------
 Stoichiometry    C20H36I2N4O4Pb
 Framework group  C1[X(C20H36I2N4O4Pb)]
 Deg. of freedom   195
 Full point group                 C1      NOp   1
 Largest Abelian subgroup         C1      NOp   1
 Largest concise Abelian subgroup C1      NOp   1
                         Standard orientation:                         
 ---------------------------------------------------------------------
 Center     Atomic      Atomic             Coordinates (Angstroms)
 Number     Number       Type             X           Y           Z
 ---------------------------------------------------------------------
      1         82           0       -0.266769   -0.102442   -0.499492
      2         53           0       -0.349387   -3.321776   -1.484266
      3         53           0       -3.307365    1.069115   -1.418833
      4          8           0        1.690195   -0.559067    0.847389
      5          6           0        1.975466   -1.376526    1.763630
      6          6           0        1.159171   -2.550122    2.258374
      7          7           0        3.116119   -1.293623    2.487237
      8          6           0        2.153685   -3.347465    3.116782
      9          6           0        3.196609   -2.299268    3.550051
     10          6           0        4.059171   -0.199124    2.374327
     11          1           0        3.766119    0.415204    1.504047
     12          1           0        4.043533    0.426911    3.291114
     13          1           0        5.087018   -0.588434    2.230355
     14          1           0        0.308705   -2.133975    2.838236
     15          1           0        0.724686   -3.104494    1.403878
     16          1           0        1.684538   -3.847735    3.982798
     17          1           0        2.645250   -4.123327    2.497072
     18          1           0        4.225740   -2.703908    3.616023
     19          1           0        2.950291   -1.828751    4.528289
     20          8           0        0.121013    1.911577    0.822350
     21          6           0        0.475598    3.024488    0.348892
     22          6           0       -0.007825    3.687029   -0.925397
     23          7           0        1.347645    3.850736    0.971823
     24          6           0        0.941887    4.882263   -1.107824
     25          6           0        1.490745    5.149113    0.308198
     26          6           0        1.941030    3.562412    2.261954
     27          1           0        1.711047    2.512097    2.516127
     28          1           0        1.529892    4.232634    3.045494
     29          1           0        3.039171    3.705190    2.214635
     30          1           0       -1.065132    3.988199   -0.767016
     31          1           0        0.006641    2.966104   -1.762676
     32          1           0        0.447428    5.773396   -1.533631
     33          1           0        1.773895    4.600780   -1.783044
     34          1           0        2.553086    5.464002    0.314698
     35          1           0        0.903525    5.917942    0.857622
     36          8           0        1.786521    1.056958   -1.652056
     37          6           0        2.891201    0.461409   -1.597101
     38          6           0        3.182458   -0.972069   -2.006846
     39          7           0        4.055125    1.033745   -1.191697
     40          6           0        4.565049   -1.253586   -1.402642
     41          6           0        5.210853    0.141710   -1.308445
     42          6           0        4.190592    2.433136   -0.848112
     43          1           0        3.177771    2.866190   -0.775964
     44          1           0        4.773069    2.979310   -1.619767
     45          1           0        4.709948    2.541618    0.125750
     46          1           0        3.195563   -0.999197   -3.118398
     47          1           0        2.381028   -1.657594   -1.671542
     48          1           0        5.175221   -1.954890   -1.999599
     49          1           0        4.448119   -1.679140   -0.385980
     50          1           0        5.873780    0.259800   -0.427856
     51          1           0        5.800965    0.400631   -2.216275
     52          8           0       -1.334841   -0.708203    1.550848
     53          6           0       -2.368882   -0.159556    2.032815
     54          6           0       -2.479293    1.240400    2.599387
     55          7           0       -3.572561   -0.761674    2.101487
     56          6           0       -3.830816    1.230951    3.330990
     57          6           0       -4.623924    0.117978    2.619589
     58          6           0       -3.867010   -2.039090    1.484421
     59          1           0       -2.916708   -2.485005    1.139068
     60          1           0       -4.539284   -1.894688    0.613117
     61          1           0       -4.360742   -2.712858    2.212473
     62          1           0       -2.465314    1.931621    1.729671
     63          1           0       -1.603004    1.484011    3.226960
     64          1           0       -4.357628    2.201331    3.293227
     65          1           0       -3.683773    0.960598    4.395285
     66          1           0       -5.298876   -0.444978    3.293624
     67          1           0       -5.224610    0.503797    1.766284
 ---------------------------------------------------------------------
 Rotational constants (GHZ):           0.0873834           0.0729984           0.0590610
 General basis read from cards:  (5D, 7F)
 ======================================================================================================
                                       Pseudopotential Parameters
 ======================================================================================================
  Center     Atomic      Valence      Angular      Power
  Number     Number     Electrons     Momentum     of R      Exponent        Coefficient   SO-Coeffient
 ======================================================================================================
    1         82            4
                                      G and up 
                                                     0      376.5803786       -0.17896050    0.00000000
                                                     1       86.4840014      -54.39723370    0.00000000
                                                     2       26.6784276     -199.70617590    0.00000000
                                                     2        9.4261986      -79.12239410    0.00000000
                                                     2        2.7101719      -24.98690200    0.00000000
                                                     2        0.8792031       -4.43979390    0.00000000
                                      S - G
                                                     0      132.4248796        2.81153860    0.00000000
                                                     1       47.2376044       65.03672050    0.00000000
                                                     2       17.6312727      212.78685450    0.00000000
                                                     2        5.4744712       72.10531750    0.00000000
                                                     2        1.2634856       33.01409400    0.00000000
                                                     2        0.7651447       -5.77084610    0.00000000
                                      P - G
                                                     0       67.8966454        4.87549110    0.00000000
                                                     1       24.9898225       63.91481020    0.00000000
                                                     2       10.7052939      148.10643580    0.00000000
                                                     2        3.2792568       47.31063010    0.00000000
                                                     2        0.8452522       21.03067020    0.00000000
                                                     2        0.6416245       -7.09307720    0.00000000
                                      D - G
                                                     0       68.8336005        3.21613880    0.00000000
                                                     1       24.2815874       55.73860860    0.00000000
                                                     2        9.4532762      121.41683510    0.00000000
                                                     2        2.4788185       19.34560640    0.00000000
                                                     2        2.4789161       15.36751680    0.00000000
                                                     2        0.5551738        6.12987240    0.00000000
                                      F - G
                                                     0      128.1021322        4.13536820    0.00000000
                                                     1       54.8029154       67.51284460    0.00000000
                                                     2       24.5529308      258.73731070    0.00000000
                                                     2        8.1144792      113.24782640    0.00000000
                                                     2        1.6931290       34.16802010    0.00000000
                                                     2        0.7670500       -6.55319560    0.00000000
    2         53            7
                                      F and up 
                                                     0        1.0715702       -0.07476210    0.00000000
                                                     1       44.1936028      -30.08112240    0.00000000
                                                     2       12.9367609      -75.37227210    0.00000000
                                                     2        3.1956412      -22.05637580    0.00000000
                                                     2        0.8589806       -1.69795850    0.00000000
                                      S - F
                                                     0      127.9202670        2.93800360    0.00000000
                                                     1       78.6211465       41.24712670    0.00000000
                                                     2       36.5146237      287.86800950    0.00000000
                                                     2        9.9065681      114.37585060    0.00000000
                                                     2        1.9420086       37.65477140    0.00000000
                                      P - F
                                                     0       13.0035304        2.22226300    0.00000000
                                                     1       76.0331404       39.40908310    0.00000000
                                                     2       24.1961684      177.40750020    0.00000000
                                                     2        6.4053433       77.98894620    0.00000000
                                                     2        1.5851786       25.75476410    0.00000000
                                      D - F
                                                     0       40.4278108        7.05243600    0.00000000
                                                     1       28.9084375       33.30416350    0.00000000
                                                     2       15.6268936      186.94538750    0.00000000
                                                     2        4.1442856       71.96883610    0.00000000
                                                     2        0.9377235        9.36306570    0.00000000
    3         53            7
                                      F and up 
                                                     0        1.0715702       -0.07476210    0.00000000
                                                     1       44.1936028      -30.08112240    0.00000000
                                                     2       12.9367609      -75.37227210    0.00000000
                                                     2        3.1956412      -22.05637580    0.00000000
                                                     2        0.8589806       -1.69795850    0.00000000
                                      S - F
                                                     0      127.9202670        2.93800360    0.00000000
                                                     1       78.6211465       41.24712670    0.00000000
                                                     2       36.5146237      287.86800950    0.00000000
                                                     2        9.9065681      114.37585060    0.00000000
                                                     2        1.9420086       37.65477140    0.00000000
                                      P - F
                                                     0       13.0035304        2.22226300    0.00000000
                                                     1       76.0331404       39.40908310    0.00000000
                                                     2       24.1961684      177.40750020    0.00000000
                                                     2        6.4053433       77.98894620    0.00000000
                                                     2        1.5851786       25.75476410    0.00000000
                                      D - F
                                                     0       40.4278108        7.05243600    0.00000000
                                                     1       28.9084375       33.30416350    0.00000000
                                                     2       15.6268936      186.94538750    0.00000000
                                                     2        4.1442856       71.96883610    0.00000000
                                                     2        0.9377235        9.36306570    0.00000000
    4          8
                                   No pseudopotential on this center.
    5          6
                                   No pseudopotential on this center.
    6          6
                                   No pseudopotential on this center.
    7          7
                                   No pseudopotential on this center.
    8          6
                                   No pseudopotential on this center.
    9          6
                                   No pseudopotential on this center.
   10          6
                                   No pseudopotential on this center.
   11          1
                                   No pseudopotential on this center.
   12          1
                                   No pseudopotential on this center.
   13          1
                                   No pseudopotential on this center.
   14          1
                                   No pseudopotential on this center.
   15          1
                                   No pseudopotential on this center.
   16          1
                                   No pseudopotential on this center.
   17          1
                                   No pseudopotential on this center.
   18          1
                                   No pseudopotential on this center.
   19          1
                                   No pseudopotential on this center.
   20          8
                                   No pseudopotential on this center.
   21          6
                                   No pseudopotential on this center.
   22          6
                                   No pseudopotential on this center.
   23          7
                                   No pseudopotential on this center.
   24          6
                                   No pseudopotential on this center.
   25          6
                                   No pseudopotential on this center.
   26          6
                                   No pseudopotential on this center.
   27          1
                                   No pseudopotential on this center.
   28          1
                                   No pseudopotential on this center.
   29          1
                                   No pseudopotential on this center.
   30          1
                                   No pseudopotential on this center.
   31          1
                                   No pseudopotential on this center.
   32          1
                                   No pseudopotential on this center.
   33          1
                                   No pseudopotential on this center.
   34          1
                                   No pseudopotential on this center.
   35          1
                                   No pseudopotential on this center.
   36          8
                                   No pseudopotential on this center.
   37          6
                                   No pseudopotential on this center.
   38          6
                                   No pseudopotential on this center.
   39          7
                                   No pseudopotential on this center.
   40          6
                                   No pseudopotential on this center.
   41          6
                                   No pseudopotential on this center.
   42          6
                                   No pseudopotential on this center.
   43          1
                                   No pseudopotential on this center.
   44          1
                                   No pseudopotential on this center.
   45          1
                                   No pseudopotential on this center.
   46          1
                                   No pseudopotential on this center.
   47          1
                                   No pseudopotential on this center.
   48          1
                                   No pseudopotential on this center.
   49          1
                                   No pseudopotential on this center.
   50          1
                                   No pseudopotential on this center.
   51          1
                                   No pseudopotential on this center.
   52          8
                                   No pseudopotential on this center.
   53          6
                                   No pseudopotential on this center.
   54          6
                                   No pseudopotential on this center.
   55          7
                                   No pseudopotential on this center.
   56          6
                                   No pseudopotential on this center.
   57          6
                                   No pseudopotential on this center.
   58          6
                                   No pseudopotential on this center.
   59          1
                                   No pseudopotential on this center.
   60          1
                                   No pseudopotential on this center.
   61          1
                                   No pseudopotential on this center.
   62          1
                                   No pseudopotential on this center.
   63          1
                                   No pseudopotential on this center.
   64          1
                                   No pseudopotential on this center.
   65          1
                                   No pseudopotential on this center.
   66          1
                                   No pseudopotential on this center.
   67          1
                                   No pseudopotential on this center.
 ======================================================================================================
 There are  1544 symmetry adapted cartesian basis functions of A   symmetry.
 There are  1368 symmetry adapted basis functions of A   symmetry.
  1368 basis functions,  2104 primitive gaussians,  1544 cartesian basis functions
   117 alpha electrons      117 beta electrons
       nuclear repulsion energy      3278.8730832260 Hartrees.
 NAtoms=   67 NActive=   67 NUniq=   67 SFac= 1.00D+00 NAtFMM=   60 NAOKFM=T Big=T
 Integral buffers will be    131072 words long.
 Raffenetti 1 integral format.
 Two-electron integral symmetry is turned on.
 Nuclear repulsion after empirical dispersion term =     3278.7873824991 Hartrees.
 Using the following non-standard input for PCM:
 eps=32.55
 --- end of non-standard input.
 ------------------------------------------------------------------------------
 Polarizable Continuum Model (PCM)
 =================================
 Model                : PCM.
 Atomic radii         : UFF (Universal Force Field).
 Polarization charges : Total charges.
 Charge compensation  : None.
 Solution method      : On-the-fly selection.
 Cavity type          : Scaled VdW (van der Waals Surface) (Alpha=1.100).
 Cavity algorithm     : GePol (No added spheres)
                        Default sphere list used, NSphG=   67.
                        Lebedev-Laikov grids with approx.  5.0 points / Ang**2.
                        Smoothing algorithm: York/Karplus (Gamma=1.0000).
                        Polarization charges: spherical gaussians, with
                                              point-specific exponents (IZeta= 3).
                        Self-potential: point-specific (ISelfS= 7).
                        Self-field    : sphere-specific E.n sum rule (ISelfD= 2).
 Solvent              : Water, Eps=  32.550000 Eps(inf)=   1.777849
 ------------------------------------------------------------------------------
 One-electron integrals computed using PRISM.
   1 Symmetry operations used in ECPInt.
 ECPInt:  NShTT=  129286 NPrTT=  452931 LenC2=  100752 LenP2D=  222806.
 LDataN:  DoStor=T MaxTD1= 7 Len=  274
 NBasis=  1368 RedAO= T EigKep=  1.90D-04  NBF=  1368
 NBsUse=  1368 1.00D-06 EigRej= -1.00D+00 NBFU=  1368
 Defaulting to unpruned grid for atomic number  82.
 Initial guess from the checkpoint file:  "02-PbI2_NMP.chk"
 B after Tr=    -0.000000    0.000000   -0.000000
         Rot=    1.000000    0.000000    0.000000   -0.000000 Ang=   0.00 deg.
 Requested convergence on RMS density matrix=1.00D-08 within 128 cycles.
 Requested convergence on MAX density matrix=1.00D-06.
 Requested convergence on             energy=1.00D-06.
 No special actions if energy rises.
 Defaulting to unpruned grid for atomic number  82.
 Defaulting to unpruned grid for atomic number  82.
 Defaulting to unpruned grid for atomic number  82.
 Defaulting to unpruned grid for atomic number  82.
 Inv3:  Mode=1 IEnd=    68832300.
 Iteration    1 A*A^-1 deviation from unit magnitude is 3.77D-15 for    602.
 Iteration    1 A*A^-1 deviation from orthogonality  is 2.44D-15 for   3275   2034.
 Iteration    1 A^-1*A deviation from unit magnitude is 3.11D-15 for    194.
 Iteration    1 A^-1*A deviation from orthogonality  is 2.22D-15 for   3513    458.
 Error on total polarization charges =  0.02506
 SCF Done:  E(RCAM-B3LYP) =  -1330.08264404     A.U. after   11 cycles
            NFock= 11  Conv=0.74D-08     -V/T= 2.0220
 DoSCS=F DFT=T ScalE2(SS,OS)=  1.000000  1.000000
 ExpMin= 5.98D-02 ExpMax= 1.53D+04 ExpMxC= 5.22D+02 IAcc=3 IRadAn=         5 AccDes= 0.00D+00
 HarFok:  IExCor=  205 AccDes= 0.00D+00 IRadAn=         5 IDoV=-2 UseB2=F ITyADJ=14
 ICtDFT= 12500011 ScaDFX=  1.000000  1.000000  1.000000  1.000000
 Defaulting to unpruned grid for atomic number  82.
 GSVD:  LWork=       -1008 too small for GESVD, short by        4340 words or        4340 for optimal perf.
 Range of M.O.s used for correlation:    29  1368
 NBasis=  1368 NAE=   117 NBE=   117 NFC=    28 NFV=     0
 NROrb=   1340 NOA=    89 NOB=    89 NVA=  1251 NVB=  1251

 **** Warning!!: The largest alpha MO coefficient is  0.11095405D+02

 NEqPCM:  Using non-equilibrium solvation (IEInf=1, Eps=  32.5500, EpsInf=   1.7778)
 Inv3:  Mode=1 IEnd=    68832300.
 Iteration    1 A*A^-1 deviation from unit magnitude is 3.55D-15 for   1084.
 Iteration    1 A*A^-1 deviation from orthogonality  is 2.00D-15 for   3708   1802.
 Iteration    1 A^-1*A deviation from unit magnitude is 3.33D-15 for   1084.
 Iteration    1 A^-1*A deviation from orthogonality  is 2.55D-15 for   4037    987.
 Orbital symmetries:
       Occupied  (A) (A) (A) (A) (A) (A) (A) (A) (A) (A) (A) (A)
                 (A) (A) (A) (A) (A) (A) (A) (A) (A) (A) (A) (A)
                 (A) (A) (A) (A) (A) (A) (A) (A) (A) (A) (A) (A)
                 (A) (A) (A) (A) (A) (A) (A) (A) (A) (A) (A) (A)
                 (A) (A) (A) (A) (A) (A) (A) (A) (A) (A) (A) (A)
                 (A) (A) (A) (A) (A) (A) (A) (A) (A) (A) (A) (A)
                 (A) (A) (A) (A) (A) (A) (A) (A) (A) (A) (A) (A)
                 (A) (A) (A) (A) (A) (A) (A) (A) (A) (A) (A) (A)
                 (A) (A) (A) (A) (A) (A) (A) (A) (A) (A) (A) (A)
                 (A) (A) (A) (A) (A) (A) (A) (A) (A)
       Virtual   (A) (A) (A) (A) (A) (A) (A) (A) (A) (A) (A) (A)
                 (A) (A) (A) (A) (A) (A) (A) (A) (A) (A) (A) (A)
                 (A) (A) (A) (A) (A) (A) (A) (A) (A) (A) (A) (A)
                 (A) (A) (A) (A) (A) (A) (A) (A) (A) (A) (A) (A)
                 (A) (A) (A) (A) (A) (A) (A) (A) (A) (A) (A) (A)
                 (A) (A) (A) (A) (A) (A) (A) (A) (A) (A) (A) (A)
                 (A) (A) (A) (A) (A) (A) (A) (A) (A) (A) (A) (A)
                 (A) (A) (A) (A) (A) (A) (A) (A) (A) (A) (A) (A)
                 (A) (A) (A) (A) (A) (A) (A) (A) (A) (A) (A) (A)
                 (A) (A) (A) (A) (A) (A) (A) (A) (A) (A) (A) (A)
                 (A) (A) (A) (A) (A) (A) (A) (A) (A) (A) (A) (A)
                 (A) (A) (A) (A) (A) (A) (A) (A) (A) (A) (A) (A)
                 (A) (A) (A) (A) (A) (A) (A) (A) (A) (A) (A) (A)
                 (A) (A) (A) (A) (A) (A) (A) (A) (A) (A) (A) (A)
                 (A) (A) (A) (A) (A) (A) (A) (A) (A) (A) (A) (A)
                 (A) (A) (A) (A) (A) (A) (A) (A) (A) (A) (A) (A)
                 (A) (A) (A) (A) (A) (A) (A) (A) (A) (A) (A) (A)
                 (A) (A) (A) (A) (A) (A) (A) (A) (A) (A) (A) (A)
                 (A) (A) (A) (A) (A) (A) (A) (A) (A) (A) (A) (A)
                 (A) (A) (A) (A) (A) (A) (A) (A) (A) (A) (A) (A)
                 (A) (A) (A) (A) (A) (A) (A) (A) (A) (A) (A) (A)
                 (A) (A) (A) (A) (A) (A) (A) (A) (A) (A) (A) (A)
                 (A) (A) (A) (A) (A) (A) (A) (A) (A) (A) (A) (A)
                 (A) (A) (A) (A) (A) (A) (A) (A) (A) (A) (A) (A)
                 (A) (A) (A) (A) (A) (A) (A) (A) (A) (A) (A) (A)
                 (A) (A) (A) (A) (A) (A) (A) (A) (A) (A) (A) (A)
                 (A) (A) (A) (A) (A) (A) (A) (A) (A) (A) (A) (A)
                 (A) (A) (A) (A) (A) (A) (A) (A) (A) (A) (A) (A)
                 (A) (A) (A) (A) (A) (A) (A) (A) (A) (A) (A) (A)
                 (A) (A) (A) (A) (A) (A) (A) (A) (A) (A) (A) (A)
                 (A) (A) (A) (A) (A) (A) (A) (A) (A) (A) (A) (A)
                 (A) (A) (A) (A) (A) (A) (A) (A) (A) (A) (A) (A)
                 (A) (A) (A) (A) (A) (A) (A) (A) (A) (A) (A) (A)
                 (A) (A) (A) (A) (A) (A) (A) (A) (A) (A) (A) (A)
                 (A) (A) (A) (A) (A) (A) (A) (A) (A) (A) (A) (A)
                 (A) (A) (A) (A) (A) (A) (A) (A) (A) (A) (A) (A)
                 (A) (A) (A) (A) (A) (A) (A) (A) (A) (A) (A) (A)
                 (A) (A) (A) (A) (A) (A) (A) (A) (A) (A) (A) (A)
                 (A) (A) (A) (A) (A) (A) (A) (A) (A) (A) (A) (A)
                 (A) (A) (A) (A) (A) (A) (A) (A) (A) (A) (A) (A)
                 (A) (A) (A) (A) (A) (A) (A) (A) (A) (A) (A) (A)
                 (A) (A) (A) (A) (A) (A) (A) (A) (A) (A) (A) (A)
                 (A) (A) (A) (A) (A) (A) (A) (A) (A) (A) (A) (A)
                 (A) (A) (A) (A) (A) (A) (A) (A) (A) (A) (A) (A)
                 (A) (A) (A) (A) (A) (A) (A) (A) (A) (A) (A) (A)
                 (A) (A) (A) (A) (A) (A) (A) (A) (A) (A) (A) (A)
                 (A) (A) (A) (A) (A) (A) (A) (A) (A) (A) (A) (A)
                 (A) (A) (A) (A) (A) (A) (A) (A) (A) (A) (A) (A)
                 (A) (A) (A) (A) (A) (A) (A) (A) (A) (A) (A) (A)
                 (A) (A) (A) (A) (A) (A) (A) (A) (A) (A) (A) (A)
                 (A) (A) (A) (A) (A) (A) (A) (A) (A) (A) (A) (A)
                 (A) (A) (A) (A) (A) (A) (A) (A) (A) (A) (A) (A)
                 (A) (A) (A) (A) (A) (A) (A) (A) (A) (A) (A) (A)
                 (A) (A) (A) (A) (A) (A) (A) (A) (A) (A) (A) (A)
                 (A) (A) (A) (A) (A) (A) (A) (A) (A) (A) (A) (A)
                 (A) (A) (A) (A) (A) (A) (A) (A) (A) (A) (A) (A)
                 (A) (A) (A) (A) (A) (A) (A) (A) (A) (A) (A) (A)
                 (A) (A) (A) (A) (A) (A) (A) (A) (A) (A) (A) (A)
                 (A) (A) (A) (A) (A) (A) (A) (A) (A) (A) (A) (A)
                 (A) (A) (A) (A) (A) (A) (A) (A) (A) (A) (A) (A)
                 (A) (A) (A) (A) (A) (A) (A) (A) (A) (A) (A) (A)
                 (A) (A) (A) (A) (A) (A) (A) (A) (A) (A) (A) (A)
                 (A) (A) (A) (A) (A) (A) (A) (A) (A) (A) (A) (A)
                 (A) (A) (A) (A) (A) (A) (A) (A) (A) (A) (A) (A)
                 (A) (A) (A) (A) (A) (A) (A) (A) (A) (A) (A) (A)
                 (A) (A) (A) (A) (A) (A) (A) (A) (A) (A) (A) (A)
                 (A) (A) (A) (A) (A) (A) (A) (A) (A) (A) (A) (A)
                 (A) (A) (A) (A) (A) (A) (A) (A) (A) (A) (A) (A)
                 (A) (A) (A) (A) (A) (A) (A) (A) (A) (A) (A) (A)
                 (A) (A) (A) (A) (A) (A) (A) (A) (A) (A) (A) (A)
                 (A) (A) (A) (A) (A) (A) (A) (A) (A) (A) (A) (A)
                 (A) (A) (A) (A) (A) (A) (A) (A) (A) (A) (A) (A)
                 (A) (A) (A) (A) (A) (A) (A) (A) (A) (A) (A) (A)
                 (A) (A) (A) (A) (A) (A) (A) (A) (A) (A) (A) (A)
                 (A) (A) (A) (A) (A) (A) (A) (A) (A) (A) (A) (A)
                 (A) (A) (A) (A) (A) (A) (A) (A) (A) (A) (A) (A)
                 (A) (A) (A) (A) (A) (A) (A) (A) (A) (A) (A) (A)
                 (A) (A) (A) (A) (A) (A) (A) (A) (A) (A) (A) (A)
                 (A) (A) (A) (A) (A) (A) (A) (A) (A) (A) (A) (A)
                 (A) (A) (A) (A) (A) (A) (A) (A) (A) (A) (A) (A)
                 (A) (A) (A) (A) (A) (A) (A) (A) (A) (A) (A) (A)
                 (A) (A) (A) (A) (A) (A) (A) (A) (A) (A) (A) (A)
                 (A) (A) (A) (A) (A) (A) (A) (A) (A) (A) (A) (A)
                 (A) (A) (A) (A) (A) (A) (A) (A) (A) (A) (A) (A)
                 (A) (A) (A) (A) (A) (A) (A) (A) (A) (A) (A) (A)
                 (A) (A) (A) (A) (A) (A) (A) (A) (A) (A) (A) (A)
                 (A) (A) (A) (A) (A) (A) (A) (A) (A) (A) (A) (A)
                 (A) (A) (A) (A) (A) (A) (A) (A) (A) (A) (A) (A)
                 (A) (A) (A) (A) (A) (A) (A) (A) (A) (A) (A) (A)
                 (A) (A) (A) (A) (A) (A) (A) (A) (A) (A) (A) (A)
                 (A) (A) (A) (A) (A) (A) (A) (A) (A) (A) (A) (A)
                 (A) (A) (A) (A) (A) (A) (A) (A) (A) (A) (A) (A)
                 (A) (A) (A) (A) (A) (A) (A) (A) (A) (A) (A) (A)
                 (A) (A) (A) (A) (A) (A) (A) (A) (A) (A) (A) (A)
                 (A) (A) (A) (A) (A) (A) (A) (A) (A) (A) (A) (A)
                 (A) (A) (A) (A) (A) (A) (A) (A) (A) (A) (A) (A)
                 (A) (A) (A) (A) (A) (A) (A) (A) (A) (A) (A) (A)
                 (A) (A) (A) (A) (A) (A) (A) (A) (A) (A) (A) (A)
                 (A) (A) (A) (A) (A) (A) (A) (A) (A) (A) (A) (A)
                 (A) (A) (A) (A) (A) (A) (A) (A) (A) (A) (A) (A)
                 (A) (A) (A) (A) (A) (A) (A) (A) (A) (A) (A) (A)
                 (A) (A) (A) (A) (A) (A) (A) (A) (A) (A) (A) (A)
                 (A) (A) (A) (A) (A) (A) (A) (A) (A) (A) (A) (A)
                 (A) (A) (A) (A) (A) (A) (A) (A) (A) (A) (A) (A)
                 (A) (A) (A)
    40 initial guesses have been made.
 Convergence on wavefunction:    0.001000000000000
 Iteration     1 Dimension    40 NMult     0 NNew     40
 CISAX will form    40 AO SS matrices at one time.
 Defaulting to unpruned grid for atomic number  82.
 Defaulting to unpruned grid for atomic number  82.
 Defaulting to unpruned grid for atomic number  82.
 Defaulting to unpruned grid for atomic number  82.
 New state      4 was old state      5
 New state      5 was old state      4
 New state      6 was old state     15
 New state      7 was old state     17
 New state      8 was old state      9
 New state      9 was old state     19
 New state     10 was old state     11
 Iteration     2 Dimension    60 NMult    40 NNew     20
 New state      3 was old state      4
 New state      4 was old state      3
 Iteration     3 Dimension    80 NMult    60 NNew     20
 New state      9 was old state     10
 New state     10 was old state      9
 Iteration     4 Dimension   100 NMult    80 NNew     20
 Iteration     5 Dimension   120 NMult   100 NNew     20
 Iteration     6 Dimension   140 NMult   120 NNew     20
 Iteration     7 Dimension   160 NMult   140 NNew     20
 New state      9 was old state     10
 New state     10 was old state      9
 Iteration     8 Dimension   176 NMult   160 NNew     16
 Iteration     9 Dimension   186 NMult   176 NNew     10
 Iteration    10 Dimension   192 NMult   186 NNew      6
 Iteration    11 Dimension   194 NMult   192 NNew      2
 ***********************************************************************
 Excited states from <AA,BB:AA,BB> singles matrix:
 ***********************************************************************
 
 Ground to excited state transition densities written to RWF  633
 Ground to excited state transition electric dipole moments (Au):
       state          X           Y           Z        Dip. S.      Osc.
         1         0.4699      0.5245     -0.4039      0.6591      0.0837
         2         0.1723     -1.4988     -0.3616      2.4069      0.3229
         3        -1.2191      0.3944     -0.3191      1.7436      0.2407
         4        -0.6887      0.3307      0.0215      0.5842      0.0811
         5         0.7091     -0.1793      0.0035      0.5349      0.0744
         6        -0.4625      0.1247     -0.2520      0.2930      0.0418
         7         0.3899     -0.2491     -0.2653      0.2845      0.0407
         8        -0.0128     -0.0659     -0.2560      0.0700      0.0101
         9        -0.0981      0.3284     -0.0259      0.1182      0.0171
        10         0.3553      0.0712      0.1108      0.1436      0.0208
 Ground to excited state transition velocity dipole moments (Au):
       state          X           Y           Z        Dip. S.      Osc.
         1        -0.0986     -0.0834      0.0767      0.0226      0.0789
         2        -0.0141      0.2357      0.0609      0.0595      0.1970
         3         0.2153     -0.0559      0.0594      0.0530      0.1706
         4         0.1027     -0.0492     -0.0051      0.0130      0.0416
         5        -0.1164      0.0098     -0.0048      0.0137      0.0436
         6         0.1020     -0.0203      0.0596      0.0144      0.0447
[...]
 Alpha virt. eigenvalues --    2.30413   2.31804   2.32167   2.33465   2.34386
 Alpha virt. eigenvalues --    2.35021   2.35991   2.36503   2.37512   2.38032
 Alpha virt. eigenvalues --    2.38305   2.39988   2.40812   2.41840   2.42418
 Alpha virt. eigenvalues --    2.43443   2.43485   2.44374   2.45330   2.45742
 Alpha virt. eigenvalues --    2.46570   2.46864   2.47910   2.48258   2.49423
 Alpha virt. eigenvalues --    2.49500   2.50089   2.50865   2.52120   2.53066
 Alpha virt. eigenvalues --    2.54542   2.54766   2.55622   2.55871   2.56339
 Alpha virt. eigenvalues --    2.56524   2.57357   2.57653   2.57834   2.58485
 Alpha virt. eigenvalues --    2.59133   2.59295   2.59566   2.59873   2.60306
 Alpha virt. eigenvalues --    2.60927   2.62028   2.62152   2.62460   2.62741
 Alpha virt. eigenvalues --    2.63716   2.63730   2.64003   2.64375   2.64838
 Alpha virt. eigenvalues --    2.65196   2.65807   2.65872   2.66042   2.66814
 Alpha virt. eigenvalues --    2.66921   2.67303   2.67873   2.67947   2.69039
 Alpha virt. eigenvalues --    2.69232   2.69514   2.70318   2.70782   2.71167
 Alpha virt. eigenvalues --    2.71756   2.71981   2.72208   2.72329   2.73272
 Alpha virt. eigenvalues --    2.73496   2.73818   2.73945   2.74311   2.75720
 Alpha virt. eigenvalues --    2.76027   2.76288   2.77120   2.77588   2.77795
 Alpha virt. eigenvalues --    2.77944   2.78598   2.79011   2.79691   2.80315
 Alpha virt. eigenvalues --    2.80778   2.80960   2.81405   2.81760   2.82387
 Alpha virt. eigenvalues --    2.82972   2.84118   2.84225   2.84721   2.85704
 Alpha virt. eigenvalues --    2.86440   2.86643   2.86857   2.87288   2.88046
 Alpha virt. eigenvalues --    2.88603   2.89034   2.89427   2.89702   2.89920
 Alpha virt. eigenvalues --    2.90498   2.91977   2.92694   2.92972   2.93144
 Alpha virt. eigenvalues --    2.93721   2.93749   2.93934   2.95020   2.95440
 Alpha virt. eigenvalues --    2.95878   2.96159   2.96817   2.97218   2.97455
 Alpha virt. eigenvalues --    2.98052   2.98545   2.98671   2.99068   2.99390
 Alpha virt. eigenvalues --    2.99716   3.00289   3.00712   3.01173   3.01776
 Alpha virt. eigenvalues --    3.02163   3.02542   3.02860   3.03010   3.03224
 Alpha virt. eigenvalues --    3.03815   3.03978   3.04510   3.04843   3.05035
 Alpha virt. eigenvalues --    3.05299   3.05933   3.06210   3.06467   3.06703
 Alpha virt. eigenvalues --    3.06874   3.07292   3.07771   3.07884   3.08069
 Alpha virt. eigenvalues --    3.08423   3.08787   3.09274   3.09740   3.10139
 Alpha virt. eigenvalues --    3.10623   3.10944   3.11181   3.12214   3.12519
 Alpha virt. eigenvalues --    3.12673   3.13156   3.13385   3.13688   3.13835
 Alpha virt. eigenvalues --    3.14296   3.14383   3.14508   3.14787   3.15360
 Alpha virt. eigenvalues --    3.15541   3.15965   3.16209   3.16493   3.17294
 Alpha virt. eigenvalues --    3.17510   3.17685   3.17961   3.18689   3.19001
 Alpha virt. eigenvalues --    3.19682   3.19876   3.20345   3.20776   3.21014
 Alpha virt. eigenvalues --    3.21866   3.21904   3.22427   3.22674   3.23046
 Alpha virt. eigenvalues --    3.23819   3.24294   3.24527   3.24737   3.25167
 Alpha virt. eigenvalues --    3.25818   3.25952   3.26362   3.26798   3.27107
 Alpha virt. eigenvalues --    3.27649   3.28164   3.28181   3.28665   3.29017
 Alpha virt. eigenvalues --    3.29460   3.29979   3.30694   3.31014   3.31586
 Alpha virt. eigenvalues --    3.32095   3.32430   3.32861   3.33154   3.33680
 Alpha virt. eigenvalues --    3.33963   3.34456   3.34538   3.35018   3.35216
 Alpha virt. eigenvalues --    3.35367   3.35600   3.35864   3.36090   3.36406
 Alpha virt. eigenvalues --    3.36636   3.37068   3.37607   3.38562   3.38871
 Alpha virt. eigenvalues --    3.39391   3.39859   3.39947   3.40729   3.40874
 Alpha virt. eigenvalues --    3.41260   3.41716   3.42174   3.43054   3.43504
 Alpha virt. eigenvalues --    3.43992   3.44498   3.44639   3.44758   3.45353
 Alpha virt. eigenvalues --    3.45876   3.46455   3.46954   3.47201   3.47517
 Alpha virt. eigenvalues --    3.47743   3.48561   3.48653   3.48882   3.49297
 Alpha virt. eigenvalues --    3.49404   3.49590   3.49627   3.50421   3.50795
 Alpha virt. eigenvalues --    3.51053   3.52181   3.52857   3.53077   3.53242
 Alpha virt. eigenvalues --    3.53437   3.53903   3.54412   3.54943   3.55620
 Alpha virt. eigenvalues --    3.56456   3.56604   3.56829   3.57340   3.57771
 Alpha virt. eigenvalues --    3.58127   3.58260   3.58508   3.59289   3.59580
 Alpha virt. eigenvalues --    3.60256   3.60540   3.60820   3.61169   3.61480
 Alpha virt. eigenvalues --    3.62057   3.62647   3.63254   3.63560   3.63673
 Alpha virt. eigenvalues --    3.64060   3.64382   3.65973   3.66328   3.66984
 Alpha virt. eigenvalues --    3.67594   3.67918   3.68049   3.69190   3.70288
 Alpha virt. eigenvalues --    3.70705   3.71106   3.71874   3.72004   3.72449
 Alpha virt. eigenvalues --    3.72840   3.73145   3.73312   3.73609   3.73729
 Alpha virt. eigenvalues --    3.74579   3.74871   3.75552   3.75695   3.76134
 Alpha virt. eigenvalues --    3.76395   3.77138   3.77498   3.77623   3.78425
 Alpha virt. eigenvalues --    3.79320   3.79736   3.80032   3.80499   3.80905
 Alpha virt. eigenvalues --    3.81375   3.81585   3.81976   3.82227   3.82660
 Alpha virt. eigenvalues --    3.82802   3.83379   3.83519   3.84137   3.84898
 Alpha virt. eigenvalues --    3.85093   3.85983   3.86662   3.87117   3.87822
 Alpha virt. eigenvalues --    3.88234   3.88477   3.89065   3.89236   3.90030
 Alpha virt. eigenvalues --    3.90584   3.90745   3.91363   3.91662   3.92936
 Alpha virt. eigenvalues --    3.93954   3.94377   3.94735   3.95572   3.95606
 Alpha virt. eigenvalues --    3.95814   3.96358   3.96492   3.96891   3.97351
 Alpha virt. eigenvalues --    3.97886   3.98394   3.98562   3.99175   3.99612
 Alpha virt. eigenvalues --    4.00023   4.00324   4.00688   4.01378   4.01583
 Alpha virt. eigenvalues --    4.01875   4.02008   4.02661   4.02822   4.04126
 Alpha virt. eigenvalues --    4.04732   4.05271   4.05509   4.05741   4.05817
 Alpha virt. eigenvalues --    4.06288   4.06434   4.07071   4.07517   4.07736
 Alpha virt. eigenvalues --    4.08379   4.08875   4.09034   4.09440   4.09772
 Alpha virt. eigenvalues --    4.09966   4.10887   4.11336   4.11681   4.12235
 Alpha virt. eigenvalues --    4.12776   4.12935   4.13397   4.13672   4.14334
 Alpha virt. eigenvalues --    4.14531   4.14775   4.15237   4.15398   4.15648
 Alpha virt. eigenvalues --    4.16623   4.17264   4.18095   4.18396   4.18756
 Alpha virt. eigenvalues --    4.18943   4.19954   4.20386   4.20867   4.21330
 Alpha virt. eigenvalues --    4.21549   4.21846   4.22474   4.22536   4.23430
 Alpha virt. eigenvalues --    4.23881   4.24125   4.24345   4.24835   4.25075
 Alpha virt. eigenvalues --    4.25693   4.25957   4.26641   4.27052   4.27531
 Alpha virt. eigenvalues --    4.27747   4.27930   4.28473   4.28615   4.28832
 Alpha virt. eigenvalues --    4.29455   4.29653   4.30694   4.31002   4.31130
 Alpha virt. eigenvalues --    4.31621   4.31869   4.32179   4.32922   4.33681
 Alpha virt. eigenvalues --    4.34051   4.34658   4.35657   4.36265   4.36437
 Alpha virt. eigenvalues --    4.36789   4.37450   4.37833   4.38170   4.38691
 Alpha virt. eigenvalues --    4.38915   4.39471   4.39644   4.40207   4.40521
 Alpha virt. eigenvalues --    4.40675   4.40775   4.41975   4.42687   4.43098
 Alpha virt. eigenvalues --    4.43804   4.44556   4.44943   4.46234   4.47315
 Alpha virt. eigenvalues --    4.47840   4.48873   4.49221   4.49483   4.50105
 Alpha virt. eigenvalues --    4.50931   4.51349   4.52062   4.52147   4.53331
 Alpha virt. eigenvalues --    4.53924   4.54622   4.55189   4.55598   4.56184
 Alpha virt. eigenvalues --    4.56637   4.57196   4.57781   4.59111   4.59698
 Alpha virt. eigenvalues --    4.60441   4.61579   4.62768   4.63148   4.63938
 Alpha virt. eigenvalues --    4.64490   4.68832   4.69727   4.69942   4.70637
 Alpha virt. eigenvalues --    4.70893   4.70943   4.71148   4.73042   4.73814
 Alpha virt. eigenvalues --    4.74408   4.75132   4.76399   4.77100   4.77520
 Alpha virt. eigenvalues --    4.77751   4.78763   4.79792   4.80129   4.80521
 Alpha virt. eigenvalues --    4.81036   4.82426   4.83412   4.84626   4.84877
 Alpha virt. eigenvalues --    4.85451   4.86103   4.86441   4.86450   4.86951
 Alpha virt. eigenvalues --    4.87377   4.87797   4.88754   4.89000   4.89228
 Alpha virt. eigenvalues --    4.89763   4.90901   4.92724   4.93213   4.93286
 Alpha virt. eigenvalues --    4.94302   4.96016   4.96563   4.96811   4.97264
 Alpha virt. eigenvalues --    4.98535   4.98921   4.99045   4.99441   4.99748
 Alpha virt. eigenvalues --    5.00098   5.00626   5.00953   5.01519   5.01623
 Alpha virt. eigenvalues --    5.01910   5.02101   5.03704   5.04072   5.04456
 Alpha virt. eigenvalues --    5.04808   5.05711   5.06349   5.06574   5.06886
 Alpha virt. eigenvalues --    5.08970   5.09249   5.09815   5.10424   5.12375
 Alpha virt. eigenvalues --    5.12448   5.12547   5.13162   5.13362   5.14119
 Alpha virt. eigenvalues --    5.14312   5.14693   5.14786   5.14973   5.15425
 Alpha virt. eigenvalues --    5.16112   5.16757   5.17385   5.17906   5.18932
 Alpha virt. eigenvalues --    5.19483   5.19761   5.20233   5.20325   5.20436
 Alpha virt. eigenvalues --    5.20869   5.21266   5.21875   5.22117   5.22227
 Alpha virt. eigenvalues --    5.22479   5.22856   5.24522   5.24911   5.25338
 Alpha virt. eigenvalues --    5.25469   5.25829   5.25993   5.26669   5.27359
 Alpha virt. eigenvalues --    5.27496   5.27692   5.28846   5.28897   5.30182
 Alpha virt. eigenvalues --    5.30369   5.30578   5.30623   5.31008   5.31557
 Alpha virt. eigenvalues --    5.31791   5.32122   5.32464   5.32530   5.33418
 Alpha virt. eigenvalues --    5.33769   5.36629   5.37311   5.37440   5.38462
 Alpha virt. eigenvalues --    5.38802   5.39948   5.40284   5.40550   5.40984
 Alpha virt. eigenvalues --    5.41528   5.42878   5.43306   5.43620   5.44260
 Alpha virt. eigenvalues --    5.44780   5.45575   5.45884   5.46638   5.47237
 Alpha virt. eigenvalues --    5.47656   5.48109   5.48419   5.48946   5.49614
 Alpha virt. eigenvalues --    5.50174   5.51026   5.51316   5.52034   5.54170
 Alpha virt. eigenvalues --    5.54925   5.54971   5.55562   5.58394   5.58683
 Alpha virt. eigenvalues --    5.58799   5.59541   5.60386   5.60826   5.61078
 Alpha virt. eigenvalues --    5.63095   5.65309   5.66253   5.66947   5.68267
 Alpha virt. eigenvalues --    5.72752   5.73112   5.73275   5.74624   5.75538
 Alpha virt. eigenvalues --    5.75586   5.76071   5.76703   5.77231   5.77416
 Alpha virt. eigenvalues --    5.78591   5.79465   5.88636   5.90403   5.91188
 Alpha virt. eigenvalues --    5.91379   5.91606   5.92140   5.93333   5.94483
 Alpha virt. eigenvalues --    5.95526   5.95740   5.96283   5.96544   5.96664
 Alpha virt. eigenvalues --    5.97174   5.97776   5.98810   5.99106   6.00208
 Alpha virt. eigenvalues --    6.01691   6.02253   6.02529   6.02975   6.03745
 Alpha virt. eigenvalues --    6.04219   6.04640   6.05522   6.06914   6.07819
 Alpha virt. eigenvalues --    6.08433   6.09392   6.09854   6.11317   6.12870
 Alpha virt. eigenvalues --    6.13799   6.14858   6.16801   6.22175   6.23209
 Alpha virt. eigenvalues --    6.24753   6.26272   6.40855   6.42263   6.43839
 Alpha virt. eigenvalues --    6.45226   6.45952   6.48678   6.49054   6.50979
 Alpha virt. eigenvalues --    6.56223   6.57058   6.58616   6.59780   6.79495
 Alpha virt. eigenvalues --    6.79800   6.80077   6.82787   6.91061   6.92131
 Alpha virt. eigenvalues --    6.95631   6.97325   7.11603   7.12840   7.14337
 Alpha virt. eigenvalues --    7.15630   7.16675   7.17413   7.19125   7.19879
 Alpha virt. eigenvalues --    9.53680   9.62417   9.70769   9.79147  10.23396
 Alpha virt. eigenvalues --   11.31478  11.54133  11.57725  11.59122  11.61595
 Alpha virt. eigenvalues --   11.66935  11.93670  11.95668  11.99406  12.07333
 Alpha virt. eigenvalues --   12.25638  12.32994  12.42285  12.45995  12.75862
 Alpha virt. eigenvalues --   12.78422  12.80390  12.88674  13.04275  13.05495
 Alpha virt. eigenvalues --   13.07121  13.08218  13.56005  13.58753  13.76493
 Alpha virt. eigenvalues --   13.79519
          Condensed to atoms (all electrons):
 Mulliken charges:
               1
     1  Pb   1.129769
     2  I   -0.737209
     3  I   -0.752094
     4  O   -0.537098
     5  C    0.302460
     6  C   -0.164053
     7  N   -0.028597
     8  C   -0.191051
     9  C   -0.080878
    10  C   -0.242514
    11  H    0.131110
    12  H    0.124241
    13  H    0.125873
    14  H    0.123792
    15  H    0.089514
    16  H    0.114774
    17  H    0.110133
    18  H    0.111735
    19  H    0.106192
    20  O   -0.529336
    21  C    0.293669
    22  C   -0.167547
    23  N   -0.037449
    24  C   -0.210168
    25  C   -0.101617
    26  C   -0.225915
    27  H    0.127290
    28  H    0.122512
    29  H    0.118248
    30  H    0.125244
    31  H    0.121450
    32  H    0.125251
    33  H    0.116872
    34  H    0.124903
    35  H    0.118092
    36  O   -0.505563
    37  C    0.250694
    38  C   -0.140432
    39  N   -0.034700
    40  C   -0.202225
    41  C   -0.116058
    42  C   -0.221808
    43  H    0.109011
    44  H    0.123731
    45  H    0.115786
    46  H    0.126602
    47  H    0.074561
    48  H    0.120351
    49  H    0.115330
    50  H    0.123563
    51  H    0.116713
    52  O   -0.545229
    53  C    0.258882
    54  C   -0.144156
    55  N   -0.002827
    56  C   -0.192593
    57  C   -0.074846
    58  C   -0.192710
    59  H    0.109442
    60  H    0.101494
    61  H    0.113882
    62  H    0.096905
    63  H    0.125437
    64  H    0.114670
    65  H    0.109720
    66  H    0.112921
    67  H    0.095850
 Sum of Mulliken charges =  -0.00000
 Mulliken charges with hydrogens summed into heavy atoms:
               1
     1  Pb   1.129769
     2  I   -0.737209
     3  I   -0.752094
     4  O   -0.537098
     5  C    0.302460
     6  C    0.049253
     7  N   -0.028597
     8  C    0.033856
     9  C    0.137049
    10  C    0.138709
    20  O   -0.529336
    21  C    0.293669
    22  C    0.079147
    23  N   -0.037449
    24  C    0.031954
    25  C    0.141379
    26  C    0.142135
    36  O   -0.505563
    37  C    0.250694
    38  C    0.060732
    39  N   -0.034700
    40  C    0.033456
    41  C    0.124218
    42  C    0.126721
    52  O   -0.545229
    53  C    0.258882
    54  C    0.078186
    55  N   -0.002827
    56  C    0.031797
    57  C    0.133925
    58  C    0.132109
 Electronic spatial extent (au):  <R**2>=          15553.3233
 Charge=              0.0000 electrons
 Dipole moment (field-independent basis, Debye):
    X=             19.3328    Y=             12.1536    Z=             17.2483  Tot=             28.6177
 Quadrupole moment (field-independent basis, Debye-Ang):
   XX=           -179.8988   YY=           -218.2201   ZZ=           -209.1297
   XY=             14.2830   XZ=            -26.2960   YZ=            -16.7856
 Traceless Quadrupole moment (field-independent basis, Debye-Ang):
   XX=             22.5174   YY=            -15.8039   ZZ=             -6.7135
   XY=             14.2830   XZ=            -26.2960   YZ=            -16.7856
 Octapole moment (field-independent basis, Debye-Ang**2):
  XXX=             37.6601  YYY=            169.6553  ZZZ=           -111.2587  XYY=             21.9866
  XXY=            -82.9655  XXZ=             72.1255  XZZ=            -15.1713  YZZ=            -43.1061
  YYZ=             37.8911  XYZ=            -24.2446
 Hexadecapole moment (field-independent basis, Debye-Ang**3):
 XXXX=          -9730.2941 YYYY=          -7323.9144 ZZZZ=          -4647.6419 XXXY=            158.2798
 XXXZ=           -217.0074 YYYX=             60.3057 YYYZ=            -48.7835 ZZZX=            268.9877
 ZZZY=            110.8655 XXYY=          -2893.6166 XXZZ=          -2280.5435 YYZZ=          -2064.8331
 XXYZ=             61.9308 YYXZ=            121.3702 ZZXY=            -93.2681
 N-N= 3.278787382499D+03 E-N=-9.640759907476D+03  KE= 1.301440822462D+03
 Unable to Open any file for archive entry.
 1\1\GINC-MPCL104\SP\RCAM-B3LYP TD-FC\Gen\C20H36I2N4O4Pb1\EDBA4025\12-N
 ov-2020\0\\# cam-b3lyp/gen pseudo=read TD=NStates=10 Geom=Check Guess=
 Read empiricaldispersion=gd3bj SCRF=(read)\\PbI2_NMP\\0,1\Pb,0,-0.0543
 987967,-0.3458382111,-0.4093412402\I,0,3.295075607,-0.0176661607,-0.29
 08386714\I,0,-0.5396029213,-2.4088137372,-3.0497322596\O,0,-0.23073716
 22,0.5970885963,1.811491302\C,0,0.2648106458,0.3299362231,2.939399891\
 C,0,1.3534034003,-0.6667604238,3.27106225\N,0,-0.1543792028,0.92447477
 53,4.0806145312\C,0,1.7560225385,-0.299338003,4.7079259956\C,0,0.50680
 25238,0.3993951049,5.2783219866\C,0,-1.2870456814,1.8260844931,4.14535
 73464\H,0,-1.6002481899,2.0551207187,3.1108943104\H,0,-2.1311157365,1.
 3552689602,4.6917463333\H,0,-1.0060987006,2.7619692214,4.6687583664\H,
 0,0.906254868,-1.6791078782,3.182074113\H,0,2.1689471432,-0.6090039743
 ,2.5241875446\H,0,2.057643197,-1.1705785315,5.3164619099\H,0,2.6024771
 596,0.4153486755,4.6885381571\H,0,0.7452707652,1.2258101801,5.97643761
 36\H,0,-0.1764534353,-0.3055946566,5.8028791037\O,0,-2.3836396579,-0.6
 349296688,0.2577266206\C,0,-3.3618861429,-0.0444999934,-0.2741457354\C
 ,0,-3.5875103968,0.2359809933,-1.7461839106\N,0,-4.4292182766,0.401347
 173,0.4281493876\C,0,-4.7982833618,1.1833585127,-1.7640794083\C,0,-5.5
 061959314,0.9182204284,-0.4201545953\C,0,-4.5788396905,0.2197977051,1.
 8579495063\H,0,-3.6165544104,-0.1474196454,2.2577184274\H,0,-5.3790676
 248,-0.5161445877,2.0819831975\H,0,-4.8407003514,1.1842784725,2.337265
 6809\H,0,-3.7845458178,-0.7357389306,-2.2468052656\H,0,-2.6743120373,0
 .6606768978,-2.2008053609\H,0,-5.4707831,1.0182232077,-2.6245405598\H,
 0,-4.451441734,2.2348783429,-1.8014727031\H,0,-5.9423715365,1.83031979
 89,0.0332668613\H,0,-6.3148144926,0.1587049833,-0.5041988022\O,0,-1.10
 69793689,2.0476448642,-0.6372078452\C,0,-0.6928789801,2.9371551008,0.1
 47209356\C,0,0.7493891013,3.3473719286,0.390445137\N,0,-1.4957217459,3
 .7360847095,0.8980715021\C,0,0.6798182875,4.1970518338,1.666797634\C,0
 ,-0.7585723278,4.7481784567,1.6579021914\C,0,-2.9413196944,3.722414456
 ,0.829111369\H,0,-3.2464214479,2.8385463281,0.2423945405\H,0,-3.326625
 4538,4.6423294167,0.3409184624\H,0,-3.3744641584,3.6580647049,1.848008
 1596\H,0,1.0751186703,3.9399396404,-0.4922896385\H,0,1.4136268862,2.46
 46793391,0.4560594982\H,0,1.434003531,5.0034681328,1.7041200427\H,0,0.
 82487507,3.5493289912,2.5543697851\H,0,-1.1936865811,4.855223037,2.671
 8405858\H,0,-0.83380319,5.735455519,1.1489314416\O,0,0.1021625235,-2.3
 511271783,0.8813649374\C,0,-0.4217235998,-3.463562239,0.5804002768\C,0
 ,-1.8973431652,-3.8032807181,0.5659470189\N,0,0.2859618442,-4.54580567
 85,0.2008793675\C,0,-1.9163654528,-5.3370491982,0.4703487466\C,0,-0.56
 13913868,-5.6798328317,-0.1780073525\C,0,1.7093927582,-4.5196779487,-0
 .0682402878\H,0,2.1087522102,-3.5463329234,0.2698317907\H,0,1.89269226
 63,-4.6299608985,-1.1573747128\H,0,2.2170894024,-5.3458857796,0.467875
 6186\H,0,-2.3227820633,-3.3104623547,-0.334341335\H,0,-2.4105048954,-3
 .3775220367,1.4471227975\H,0,-2.7656569725,-5.7301423919,-0.1168270638
 \H,0,-1.9656056549,-5.7794337973,1.4848965972\H,0,-0.1219349169,-6.627
 9040563,0.189198696\H,0,-0.6223649546,-5.7298154899,-1.2877792412\\Ver
 sion=ES64L-G16RevC.01\State=1-A\HF=-1330.082644\RMSD=7.402e-09\PG=C01 
 [X(C20H36I2N4O4Pb1)]\\@
 The archive entry for this job was punched.


 FIREWORKS ENDED
 AND SPECTATORS GONE AWAY....
 AH, HOW VAST AND DARK
                     SHIKI
 Job cpu time:       1 days 18 hours 20 minutes 32.3 seconds.
 Elapsed time:       0 days 10 hours 36 minutes  5.3 seconds.
 File lengths (MBytes):  RWF=   8401 Int=      0 D2E=      0 Chk=    656 Scr=      1
 Normal termination of Gaussian 16 at Thu Nov 12 05:45:24 2020.
