 Entering Gaussian System, Link 0=g16
 Input=02-PbI2_PC_22800353.com
 Output=02-PbI2_PC_22800353.log
 Initial command:
 /cm/shared/uniol/software/gaussian/g16.c01/g16/l1.exe "/scratch/22800353_edba4025/Gau-5409.inp" -scrdir="/scratch/22800353_edba4025/"
 Entering Link 1 = /cm/shared/uniol/software/gaussian/g16.c01/g16/l1.exe PID=      5410.
  
 Copyright (c) 1988-2019, Gaussian, Inc.  All Rights Reserved.
  
 This is part of the Gaussian(R) 16 program.  It is based on
 the Gaussian(R) 09 system (copyright 2009, Gaussian, Inc.),
 the Gaussian(R) 03 system (copyright 2003, Gaussian, Inc.),
 the Gaussian(R) 98 system (copyright 1998, Gaussian, Inc.),
 the Gaussian(R) 94 system (copyright 1995, Gaussian, Inc.),
 the Gaussian 92(TM) system (copyright 1992, Gaussian, Inc.),
 the Gaussian 90(TM) system (copyright 1990, Gaussian, Inc.),
 the Gaussian 88(TM) system (copyright 1988, Gaussian, Inc.),
 the Gaussian 86(TM) system (copyright 1986, Carnegie Mellon
 University), and the Gaussian 82(TM) system (copyright 1983,
 Carnegie Mellon University). Gaussian is a federally registered
 trademark of Gaussian, Inc.
  
 This software contains proprietary and confidential information,
 including trade secrets, belonging to Gaussian, Inc.
  
 This software is provided under written license and may be
 used, copied, transmitted, or stored only in accord with that
 written license.
  
 The following legend is applicable only to US Government
 contracts under FAR:
  
                    RESTRICTED RIGHTS LEGEND
  
 Use, reproduction and disclosure by the US Government is
 subject to restrictions as set forth in subparagraphs (a)
 and (c) of the Commercial Computer Software - Restricted
 Rights clause in FAR 52.227-19.
  
 Gaussian, Inc.
 340 Quinnipiac St., Bldg. 40, Wallingford CT 06492
  
  
 ---------------------------------------------------------------
 Warning -- This program may not be used in any manner that
 competes with the business of Gaussian, Inc. or will provide
 assistance to any competitor of Gaussian, Inc.  The licensee
 of this program is prohibited from giving any competitor of
 Gaussian, Inc. access to this program.  By using this program,
 the user acknowledges that Gaussian, Inc. is engaged in the
 business of creating and licensing software in the field of
 computational chemistry and represents and warrants to the
 licensee that it is not a competitor of Gaussian, Inc. and that
 it will not use this program in any manner prohibited above.
 ---------------------------------------------------------------
  

 Cite this work as:
 Gaussian 16, Revision C.01,
 M. J. Frisch, G. W. Trucks, H. B. Schlegel, G. E. Scuseria, 
 M. A. Robb, J. R. Cheeseman, G. Scalmani, V. Barone, 
 G. A. Petersson, H. Nakatsuji, X. Li, M. Caricato, A. V. Marenich, 
 J. Bloino, B. G. Janesko, R. Gomperts, B. Mennucci, H. P. Hratchian, 
 J. V. Ortiz, A. F. Izmaylov, J. L. Sonnenberg, D. Williams-Young, 
 F. Ding, F. Lipparini, F. Egidi, J. Goings, B. Peng, A. Petrone, 
 T. Henderson, D. Ranasinghe, V. G. Zakrzewski, J. Gao, N. Rega, 
 G. Zheng, W. Liang, M. Hada, M. Ehara, K. Toyota, R. Fukuda, 
 J. Hasegawa, M. Ishida, T. Nakajima, Y. Honda, O. Kitao, H. Nakai, 
 T. Vreven, K. Throssell, J. A. Montgomery, Jr., J. E. Peralta, 
 F. Ogliaro, M. J. Bearpark, J. J. Heyd, E. N. Brothers, K. N. Kudin, 
 V. N. Staroverov, T. A. Keith, R. Kobayashi, J. Normand, 
 K. Raghavachari, A. P. Rendell, J. C. Burant, S. S. Iyengar, 
 J. Tomasi, M. Cossi, J. M. Millam, M. Klene, C. Adamo, R. Cammi, 
 J. W. Ochterski, R. L. Martin, K. Morokuma, O. Farkas, 
 J. B. Foresman, and D. J. Fox, Gaussian, Inc., Wallingford CT, 2019.
 
 ******************************************
 Gaussian 16:  ES64L-G16RevC.01  3-Jul-2019
                11-Nov-2020 
 ******************************************
 %oldChk=01-PbI2_PC
 %chk=02-PbI2_PC
 %mem=16GB
 %NProcShared=4
 Will use up to    4 processors via shared memory.
 Copying data from "01-PbI2_PC.chk" to current chk file "02-PbI2_PC.chk"
 IOpt=  2 FromEx=T IUOpen= 4 IOptOp= 5 NList=   0 IFRang= 0 IUIn= 4 IUOut= 2.
 ----------------------------------------------------------------------
 # cam-b3lyp/gen pseudo=read TD=NStates=10 Geom=Check Guess=Read empiri
 caldispersion=gd3bj SCRF=(read)
 ----------------------------------------------------------------------
 1/29=2,38=1,40=2,172=1/1;
 2/12=2,40=1/2;
 3/5=7,11=9,14=-4,16=1,17=8,25=1,30=1,70=2203,74=-40,116=-2,124=41/1,2,3,8;
 4/5=1/1;
 5/5=2,38=6/2;
 8/6=1,10=1,108=10/1;
 9/41=10,42=1,70=2/14;
 6/7=2,8=2,9=2,10=2/1;
 99/5=1,9=1/99;
 -------
 PbI2_PC
 -------
 Structure from the checkpoint file:  "02-PbI2_PC.chk"
 Charge =  0 Multiplicity = 1
 Redundant internal coordinates found in file.  (old form).
 Pb,0,0.1162170224,0.243433034,-1.3056633431
 I,0,-0.5282533872,0.7332531051,-4.2658833804
 I,0,0.4837133911,-2.8420119531,-1.4270889682
 O,0,-0.1647114967,2.9749545778,-0.5926214075
 C,0,0.4763073881,3.0394223711,0.4471564874
 O,0,1.739038188,2.5834858806,0.5741650034
 O,0,-0.0045524924,3.558229986,1.5996471838
 C,0,2.1142288952,2.600137974,1.9943419057
 C,0,1.0614394673,3.5494827923,2.5887523462
 C,0,3.549555377,3.0489389503,2.1435380135
 H,0,0.6397690033,3.1937622362,3.5447502621
 H,0,1.4382901589,4.5865238765,2.6994900016
 H,0,3.6920165506,4.0663780307,1.7292565348
 H,0,4.2334191426,2.349702444,1.6259760606
 H,0,3.8212041175,3.0624846488,3.2177134588
 H,0,1.9642159022,1.5618813176,2.3488219215
 O,0,0.1816131485,0.1355195359,1.5563190986
 C,0,-0.3346823929,-0.8143740064,2.1272126356
 O,0,-1.6660991295,-0.9386604849,2.3265507399
 O,0,0.3556989364,-1.8587362541,2.630833531
 C,0,-1.9533312877,-2.2940715911,2.8235571203
 C,0,-0.567965075,-2.7441614902,3.3232112109
 C,0,-2.5317688922,-3.1263466119,1.6957640462
 H,0,-0.4284972918,-2.6011827441,4.4115695363
 H,0,-0.321211171,-3.7823606168,3.0385525958
 H,0,-1.7959997477,-3.238027482,0.8730694754
 H,0,-3.4458769893,-2.6478824677,1.296349064
 H,0,-2.7958445489,-4.1318418069,2.0791217746
 H,0,-2.6699773295,-2.1684513443,3.655484625
 O,0,2.6677272473,0.3314743868,-1.8254438346
 C,0,3.4414096424,-0.07474836,-0.9600414982
 O,0,3.1313480095,-0.1589582798,0.3451488517
 O,0,4.6913934491,-0.4871931053,-1.2300995001
 C,0,4.2030286608,-0.8926240506,1.0406367221
 C,0,5.3595978914,-0.7826449757,0.0305007907
 C,0,3.7304558717,-2.3010273992,1.3408284144
 H,0,6.0537485193,0.05023467,0.2523957341
 H,0,5.9201534101,-1.7256912151,-0.0956982439
 H,0,3.5359864356,-2.8603436472,0.4039749998
 H,0,2.7968724083,-2.2725040851,1.9339291195
 H,0,4.5088232325,-2.833671782,1.922291097
 H,0,4.4098511144,-0.3235022508,1.965472506
 O,0,-2.3807073993,-0.3634423822,-0.8862765178
 C,0,-2.9624831323,0.2576125884,0.003201549
 O,0,-2.513645652,1.4072844549,0.5226427195
 O,0,-4.1217086045,-0.1534892522,0.5476188011
 C,0,-3.3313341438,1.7508830874,1.6961503357
 C,0,-4.5747435636,0.8750157019,1.4764969469
 C,0,-3.5691230507,3.2422256215,1.7327484755
 H,0,-4.9297674388,0.3749104195,2.3937411557
 H,0,-5.4047953045,1.4284538184,0.993511719
 H,0,-4.1118023295,3.5771634068,0.8270734909
 H,0,-2.6041134646,3.7784652998,1.8014226863
 H,0,-4.1760884769,3.4957156395,2.6242465954
 H,0,-2.7496987892,1.4059697828,2.5738093506
 Recover connectivity data from disk.
                           ----------------------------
                           !    Current Parameters    !
                           ! (Angstroms and Degrees)  !
 --------------------------                            --------------------------
 ! Name  Definition              Value                                          !
 --------------------------------------------------------------------------------
 ! R1    R(1,2)                  3.0689                                         !
 ! R2    R(1,3)                  3.1096                                         !
 ! R3    R(1,30)                 2.6054                                         !
 ! R4    R(1,43)                 2.6036                                         !
 ! R5    R(4,5)                  1.2232                                         !
 ! R6    R(5,6)                  1.3485                                         !
 ! R7    R(5,7)                  1.3523                                         !
 ! R8    R(6,8)                  1.469                                          !
 ! R9    R(7,9)                  1.4542                                         !
 ! R10   R(7,53)                 2.6167                                         !
 ! R11   R(8,9)                  1.5372                                         !
 ! R12   R(8,10)                 1.5112                                         !
 ! R13   R(8,16)                 1.1073                                         !
 ! R14   R(9,11)                 1.1038                                         !
 ! R15   R(9,12)                 1.1089                                         !
 ! R16   R(10,13)                1.1077                                         !
 ! R17   R(10,14)                1.1066                                         !
 ! R18   R(10,15)                1.1081                                         !
 ! R19   R(14,42)                2.7004                                         !
 ! R20   R(16,17)                2.4167                                         !
 ! R21   R(17,18)                1.2226                                         !
 ! R22   R(18,19)                1.352                                          !
 ! R23   R(18,20)                1.3494                                         !
 ! R24   R(19,21)                1.472                                          !
 ! R25   R(19,55)                2.5947                                         !
 ! R26   R(20,22)                1.4548                                         !
 ! R27   R(20,40)                2.5722                                         !
 ! R28   R(21,22)                1.54                                           !
 ! R29   R(21,23)                1.5163                                         !
 ! R30   R(21,29)                1.1052                                         !
 ! R31   R(22,24)                1.1065                                         !
 ! R32   R(22,25)                1.1044                                         !
 ! R33   R(23,26)                1.1093                                         !
 ! R34   R(23,27)                1.1064                                         !
 ! R35   R(23,28)                1.108                                          !
 ! R36   R(27,46)                2.6906                                         !
 ! R37   R(30,31)                1.2298                                         !
 ! R38   R(31,32)                1.3442                                         !
 ! R39   R(31,33)                1.3437                                         !
 ! R40   R(32,34)                1.4733                                         !
 ! R41   R(33,35)                1.457                                          !
 ! R42   R(34,35)                1.5395                                         !
 ! R43   R(34,36)                1.5156                                         !
 ! R44   R(34,42)                1.1054                                         !
 ! R45   R(35,37)                1.1067                                         !
 ! R46   R(35,38)                1.1043                                         !
 ! R47   R(36,39)                1.1083                                         !
 ! R48   R(36,40)                1.1064                                         !
 ! R49   R(36,41)                1.108                                          !
 ! R50   R(43,44)                1.231                                          !
 ! R51   R(44,45)                1.339                                          !
 ! R52   R(44,46)                1.3451                                         !
 ! R53   R(45,47)                1.471                                          !
 ! R54   R(46,48)                1.458                                          !
 ! R55   R(47,48)                1.5367                                         !
 ! R56   R(47,49)                1.5106                                         !
 ! R57   R(47,55)                1.1079                                         !
 ! R58   R(48,50)                1.1034                                         !
 ! R59   R(48,51)                1.1084                                         !
 ! R60   R(49,52)                1.1077                                         !
 ! R61   R(49,53)                1.1061                                         !
 ! R62   R(49,54)                1.1079                                         !
 ! A1    A(2,1,3)               98.3673                                         !
 ! A2    A(2,1,30)              90.4485                                         !
 ! A3    A(2,1,43)              89.4948                                         !
 ! A4    A(3,1,30)              84.8366                                         !
 ! A5    A(3,1,43)              83.5896                                         !
 ! A6    A(4,5,6)              123.5702                                         !
 ! A7    A(4,5,7)              123.9411                                         !
 ! A8    A(6,5,7)              112.4837                                         !
 ! A9    A(5,6,8)              109.0492                                         !
 ! A10   A(5,7,9)              108.464                                          !
 ! A11   A(5,7,53)             116.826                                          !
 ! A12   A(9,7,53)             132.5553                                         !
 ! A13   A(6,8,9)              101.883                                          !
 ! A14   A(6,8,10)             109.9614                                         !
 ! A15   A(6,8,16)             105.3229                                         !
 ! A16   A(9,8,10)             115.3974                                         !
 ! A17   A(9,8,16)             111.2537                                         !
 ! A18   A(10,8,16)            112.0565                                         !
 ! A19   A(7,9,8)              104.0487                                         !
 ! A20   A(7,9,11)             108.1199                                         !
 ! A21   A(7,9,12)             108.1439                                         !
 ! A22   A(8,9,11)             113.424                                          !
 ! A23   A(8,9,12)             112.5456                                         !
 ! A24   A(11,9,12)            110.1649                                         !
 ! A25   A(8,10,13)            110.9766                                         !
 ! A26   A(8,10,14)            110.6789                                         !
 ! A27   A(8,10,15)            109.4008                                         !
 ! A28   A(13,10,14)           109.0253                                         !
 ! A29   A(13,10,15)           108.6501                                         !
 ! A30   A(14,10,15)           108.037                                          !
 ! A31   A(10,14,42)           127.3804                                         !
 ! A32   A(8,16,17)            123.2548                                         !
 ! A33   A(16,17,18)           128.0924                                         !
 ! A34   A(17,18,19)           123.789                                          !
 ! A35   A(17,18,20)           124.0225                                         !
 ! A36   A(19,18,20)           112.1885                                         !
 ! A37   A(18,19,21)           109.0627                                         !
 ! A38   A(18,19,55)           110.0137                                         !
 ! A39   A(21,19,55)           135.9225                                         !
 ! A40   A(18,20,22)           108.8942                                         !
 ! A41   A(18,20,40)           120.5925                                         !
 ! A42   A(22,20,40)           129.316                                          !
 ! A43   A(19,21,22)           101.7206                                         !
 ! A44   A(19,21,23)           109.1916                                         !
 ! A45   A(19,21,29)           106.0235                                         !
 ! A46   A(22,21,23)           115.0926                                         !
 ! A47   A(22,21,29)           111.859                                          !
 ! A48   A(23,21,29)           112.0178                                         !
 ! A49   A(20,22,21)           103.8195                                         !
 ! A50   A(20,22,24)           108.0253                                         !
 ! A51   A(20,22,25)           107.9146                                         !
 ! A52   A(21,22,24)           113.2505                                         !
 ! A53   A(21,22,25)           113.0859                                         !
 ! A54   A(24,22,25)           110.2924                                         !
 ! A55   A(21,23,26)           110.7217                                         !
 ! A56   A(21,23,27)           110.2629                                         !
 ! A57   A(21,23,28)           109.3706                                         !
 ! A58   A(26,23,27)           108.8927                                         !
 ! A59   A(26,23,28)           108.8623                                         !
 ! A60   A(27,23,28)           108.6893                                         !
 ! A61   A(23,27,46)           135.1471                                         !
 ! A62   A(1,30,31)            117.6799                                         !
 ! A63   A(30,31,32)           123.9762                                         !
 ! A64   A(30,31,33)           123.0369                                         !
 ! A65   A(32,31,33)           112.9865                                         !
 ! A66   A(31,32,34)           108.7714                                         !
 ! A67   A(31,33,35)           108.3598                                         !
 ! A68   A(32,34,35)           101.6047                                         !
 ! A69   A(32,34,36)           109.2358                                         !
 ! A70   A(32,34,42)           105.942                                          !
 ! A71   A(35,34,36)           115.505                                          !
 ! A72   A(35,34,42)           111.8146                                         !
 ! A73   A(36,34,42)           111.7806                                         !
 ! A74   A(33,35,34)           103.7471                                         !
 ! A75   A(33,35,37)           107.97                                           !
 ! A76   A(33,35,38)           107.8839                                         !
 ! A77   A(34,35,37)           113.167                                          !
 ! A78   A(34,35,38)           113.286                                          !
 ! A79   A(37,35,38)           110.3169                                         !
 ! A80   A(34,36,39)           110.87                                           !
 ! A81   A(34,36,40)           110.2012                                         !
 ! A82   A(34,36,41)           109.3675                                         !
 ! A83   A(39,36,40)           108.547                                          !
 ! A84   A(39,36,41)           108.921                                          !
 ! A85   A(40,36,41)           108.8952                                         !
 ! A86   A(20,40,36)           161.8403                                         !
 ! A87   A(14,42,34)           113.094                                          !
 ! A88   A(1,43,44)            116.8742                                         !
 ! A89   A(43,44,45)           123.7143                                         !
 ! A90   A(43,44,46)           123.0638                                         !
 ! A91   A(45,44,46)           113.2214                                         !
 ! A92   A(44,45,47)           108.8866                                         !
 ! A93   A(27,46,44)           100.3409                                         !
 ! A94   A(27,46,48)           123.6918                                         !
 ! A95   A(44,46,48)           108.0619                                         !
 ! A96   A(45,47,48)           101.6901                                         !
 ! A97   A(45,47,49)           109.7205                                         !
 ! A98   A(45,47,55)           105.5107                                         !
 ! A99   A(48,47,49)           116.0264                                         !
 ! A100  A(48,47,55)           111.1349                                         !
 ! A101  A(49,47,55)           111.7636                                         !
 ! A102  A(46,48,47)           103.9872                                         !
 ! A103  A(46,48,50)           108.0502                                         !
 ! A104  A(46,48,51)           107.8965                                         !
 ! A105  A(47,48,50)           113.5691                                         !
 ! A106  A(47,48,51)           112.5592                                         !
 ! A107  A(50,48,51)           110.34                                           !
 ! A108  A(47,49,52)           110.8445                                         !
 ! A109  A(47,49,53)           110.0462                                         !
 ! A110  A(47,49,54)           109.3669                                         !
 ! A111  A(52,49,53)           109.3658                                         !
 ! A112  A(52,49,54)           108.6835                                         !
 ! A113  A(53,49,54)           108.4865                                         !
 ! A114  A(7,53,49)            145.1981                                         !
 ! A115  A(19,55,47)           115.1538                                         !
 ! A116  L(30,1,43,2,-1)       179.9432                                         !
 ! A117  L(30,1,43,2,-2)       168.2922                                         !
 ! D1    D(2,1,30,31)         -166.1921                                         !
 ! D2    D(3,1,30,31)          -67.8311                                         !
 ! D3    D(2,1,43,44)         -125.755                                          !
 ! D4    D(3,1,43,44)          135.7669                                         !
 ! D5    D(4,5,6,8)           -170.0658                                         !
 ! D6    D(7,5,6,8)              9.1462                                         !
 ! D7    D(4,5,7,9)           -176.2013                                         !
 ! D8    D(4,5,7,53)            18.3678                                         !
 ! D9    D(6,5,7,9)              4.5901                                         !
 ! D10   D(6,5,7,53)          -160.8409                                         !
 ! D11   D(5,6,8,9)            -17.7589                                         !
 ! D12   D(5,6,8,10)          -140.6285                                         !
 ! D13   D(5,6,8,16)            98.4564                                         !
 ! D14   D(5,7,9,8)            -15.445                                          !
 ! D15   D(5,7,9,11)          -136.3126                                         !
 ! D16   D(5,7,9,12)           104.4175                                         !
 ! D17   D(53,7,9,8)           146.8127                                         !
 ! D18   D(53,7,9,11)           25.9452                                         !
 ! D19   D(53,7,9,12)          -93.3248                                         !
 ! D20   D(5,7,53,49)           54.0182                                         !
 ! D21   D(9,7,53,49)         -107.0824                                         !
 ! D22   D(6,8,9,7)             19.5274                                         !
 ! D23   D(6,8,9,11)           136.7725                                         !
 ! D24   D(6,8,9,12)           -97.3094                                         !
 ! D25   D(10,8,9,7)           138.6114                                         !
 ! D26   D(10,8,9,11)         -104.1435                                         !
 ! D27   D(10,8,9,12)           21.7746                                         !
 ! D28   D(16,8,9,7)           -92.2868                                         !
 ! D29   D(16,8,9,11)           24.9583                                         !
 ! D30   D(16,8,9,12)          150.8764                                         !
 ! D31   D(6,8,10,13)           59.8721                                         !
 ! D32   D(6,8,10,14)          -61.3179                                         !
 ! D33   D(6,8,10,15)          179.7481                                         !
 ! D34   D(9,8,10,13)          -54.6445                                         !
 ! D35   D(9,8,10,14)         -175.8345                                         !
 ! D36   D(9,8,10,15)           65.2315                                         !
 ! D37   D(16,8,10,13)         176.6487                                         !
 ! D38   D(16,8,10,14)          55.4587                                         !
 ! D39   D(16,8,10,15)         -63.4754                                         !
 ! D40   D(6,8,16,17)          -35.4466                                         !
 ! D41   D(9,8,16,17)           74.1659                                         !
 ! D42   D(10,8,16,17)        -154.9805                                         !
 ! D43   D(8,10,14,42)         -54.2923                                         !
 ! D44   D(13,10,14,42)       -176.6295                                         !
 ! D45   D(15,10,14,42)         65.4637                                         !
 ! D46   D(10,14,42,34)        119.7653                                         !
 ! D47   D(8,16,17,18)        -155.0832                                         !
 ! D48   D(16,17,18,19)        126.5172                                         !
 ! D49   D(16,17,18,20)        -53.4821                                         !
 ! D50   D(17,18,19,21)        170.1155                                         !
 ! D51   D(17,18,19,55)        -30.6892                                         !
 ! D52   D(20,18,19,21)         -9.8851                                         !
 ! D53   D(20,18,19,55)        149.3102                                         !
 ! D54   D(17,18,20,22)        175.7543                                         !
 ! D55   D(17,18,20,40)        -15.6316                                         !
 ! D56   D(19,18,20,22)         -4.2451                                         !
 ! D57   D(19,18,20,40)        164.3691                                         !
 ! D58   D(18,19,21,22)         18.5125                                         !
 ! D59   D(18,19,21,23)       -103.5479                                         !
 ! D60   D(18,19,21,29)        135.5906                                         !
 ! D61   D(55,19,21,22)       -132.8178                                         !
 ! D62   D(55,19,21,23)        105.1218                                         !
 ! D63   D(55,19,21,29)        -15.7397                                         !
 ! D64   D(18,19,55,47)        105.4167                                         !
 ! D65   D(21,19,55,47)       -103.4383                                         !
 ! D66   D(18,20,22,21)         15.599                                          !
 ! D67   D(18,20,22,24)       -104.9014                                         !
 ! D68   D(18,20,22,25)        135.8571                                         !
 ! D69   D(40,20,22,21)       -151.7123                                         !
 ! D70   D(40,20,22,24)         87.7872                                         !
 ! D71   D(40,20,22,25)        -31.4543                                         !
 ! D72   D(18,20,40,36)        -30.1465                                         !
 ! D73   D(22,20,40,36)        135.8831                                         !
 ! D74   D(19,21,22,20)        -19.9885                                         !
 ! D75   D(19,21,22,24)         96.9166                                         !
 ! D76   D(19,21,22,25)       -136.6805                                         !
 ! D77   D(23,21,22,20)         97.9074                                         !
 ! D78   D(23,21,22,24)       -145.1876                                         !
 ! D79   D(23,21,22,25)        -18.7847                                         !
 ! D80   D(29,21,22,20)       -132.755                                          !
 ! D81   D(29,21,22,24)        -15.8499                                         !
 ! D82   D(29,21,22,25)        110.553                                          !
 ! D83   D(19,21,23,26)         62.8242                                         !
 ! D84   D(19,21,23,27)        -57.7524                                         !
 ! D85   D(19,21,23,28)       -177.2156                                         !
 ! D86   D(22,21,23,26)        -50.7854                                         !
 ! D87   D(22,21,23,27)       -171.3619                                         !
 ! D88   D(22,21,23,28)         69.1748                                         !
 ! D89   D(29,21,23,26)        179.955                                          !
 ! D90   D(29,21,23,27)         59.3785                                         !
 ! D91   D(29,21,23,28)        -60.0847                                         !
 ! D92   D(21,23,27,46)         46.9596                                         !
 ! D93   D(26,23,27,46)        -74.7081                                         !
 ! D94   D(28,23,27,46)        166.8352                                         !
 ! D95   D(23,27,46,44)         36.0418                                         !
 ! D96   D(23,27,46,48)        -83.9874                                         !
 ! D97   D(1,30,31,32)         -21.9064                                         !
 ! D98   D(1,30,31,33)         157.8293                                         !
 ! D99   D(30,31,32,34)        170.5274                                         !
 ! D100  D(33,31,32,34)         -9.232                                          !
 ! D101  D(30,31,33,35)        174.9596                                         !
 ! D102  D(32,31,33,35)         -5.2784                                         !
 ! D103  D(31,32,34,35)         18.4825                                         !
 ! D104  D(31,32,34,36)       -104.0124                                         !
 ! D105  D(31,32,34,42)        135.4312                                         !
 ! D106  D(31,33,35,34)         16.5626                                         !
 ! D107  D(31,33,35,37)       -103.7777                                         !
 ! D108  D(31,33,35,38)        136.9992                                         !
 ! D109  D(32,34,35,33)        -20.5712                                         !
 ! D110  D(32,34,35,37)         96.1831                                         !
 ! D111  D(32,34,35,38)       -137.281                                          !
 ! D112  D(36,34,35,33)         97.5033                                         !
 ! D113  D(36,34,35,37)       -145.7424                                         !
 ! D114  D(36,34,35,38)        -19.2065                                         !
 ! D115  D(42,34,35,33)       -133.1665                                         !
 ! D116  D(42,34,35,37)        -16.4122                                         !
 ! D117  D(42,34,35,38)        110.1236                                         !
 ! D118  D(32,34,36,39)         63.5659                                         !
 ! D119  D(32,34,36,40)        -56.6337                                         !
 ! D120  D(32,34,36,41)       -176.3104                                         !
 ! D121  D(35,34,36,39)        -50.1705                                         !
 ! D122  D(35,34,36,40)       -170.3702                                         !
 ! D123  D(35,34,36,41)         69.9532                                         !
 ! D124  D(42,34,36,39)       -179.5173                                         !
 ! D125  D(42,34,36,40)         60.2831                                         !
 ! D126  D(42,34,36,41)        -59.3936                                         !
 ! D127  D(32,34,42,14)        -36.8711                                         !
 ! D128  D(35,34,42,14)         72.9861                                         !
 ! D129  D(36,34,42,14)       -155.7601                                         !
 ! D130  D(34,36,40,20)         64.0449                                         !
 ! D131  D(39,36,40,20)        -57.5456                                         !
 ! D132  D(41,36,40,20)       -175.9926                                         !
 ! D133  D(1,43,44,45)          16.8827                                         !
 ! D134  D(1,43,44,46)        -163.3847                                         !
 ! D135  D(43,44,45,47)       -170.997                                          !
 ! D136  D(46,44,45,47)          9.2469                                         !
 ! D137  D(43,44,46,27)         54.1122                                         !
 ! D138  D(43,44,46,48)       -175.1485                                         !
 ! D139  D(45,44,46,27)       -126.1299                                         !
 ! D140  D(45,44,46,48)          4.6094                                         !
 ! D141  D(44,45,47,48)        -17.9142                                         !
 ! D142  D(44,45,47,49)       -141.2925                                         !
 ! D143  D(44,45,47,55)         98.1604                                         !
 ! D144  D(27,46,48,47)        100.8013                                         !
 ! D145  D(27,46,48,50)        -20.1679                                         !
 ! D146  D(27,46,48,51)       -139.4695                                         !
 ! D147  D(44,46,48,47)        -15.5803                                         !
 ! D148  D(44,46,48,50)       -136.5495                                         !
 ! D149  D(44,46,48,51)        104.1488                                         !
 ! D150  D(45,47,48,46)         19.6828                                         !
 ! D151  D(45,47,48,50)        136.8794                                         !
 ! D152  D(45,47,48,51)        -96.8305                                         !
 ! D153  D(49,47,48,46)        138.6625                                         !
 ! D154  D(49,47,48,50)       -104.1409                                         !
 ! D155  D(49,47,48,51)         22.1492                                         !
 ! D156  D(55,47,48,46)        -92.2032                                         !
 ! D157  D(55,47,48,50)         24.9934                                         !
 ! D158  D(55,47,48,51)        151.2835                                         !
 ! D159  D(45,47,49,52)         60.7853                                         !
 ! D160  D(45,47,49,53)        -60.3214                                         !
 ! D161  D(45,47,49,54)       -179.4016                                         !
 ! D162  D(48,47,49,52)        -53.7067                                         !
 ! D163  D(48,47,49,53)       -174.8135                                         !
 ! D164  D(48,47,49,54)         66.1064                                         !
 ! D165  D(55,47,49,52)        177.4642                                         !
 ! D166  D(55,47,49,53)         56.3575                                         !
 ! D167  D(55,47,49,54)        -62.7227                                         !
 ! D168  D(45,47,55,19)        -43.4784                                         !
 ! D169  D(48,47,55,19)         65.9557                                         !
 ! D170  D(49,47,55,19)       -162.6784                                         !
 ! D171  D(47,49,53,7)          12.8149                                         !
 ! D172  D(52,49,53,7)        -109.1735                                         !
 ! D173  D(54,49,53,7)         132.432                                          !
 --------------------------------------------------------------------------------
 Stoichiometry    C16H24I2O12Pb
 Framework group  C1[X(C16H24I2O12Pb)]
 Deg. of freedom   159
 Full point group                 C1      NOp   1
 Largest Abelian subgroup         C1      NOp   1
 Largest concise Abelian subgroup C1      NOp   1
                         Standard orientation:                         
 ---------------------------------------------------------------------
 Center     Atomic      Atomic             Coordinates (Angstroms)
 Number     Number       Type             X           Y           Z
 ---------------------------------------------------------------------
      1         82           0        0.357104   -0.757517   -0.343699
      2         53           0        1.171303   -3.626793   -1.066542
      3         53           0        1.499202   -0.677803    2.547499
      4          8           0       -0.918334   -0.285942   -2.833565
      5          6           0       -0.919618    0.935566   -2.897725
      6          8           0        0.180262    1.693213   -2.711357
      7          8           0       -2.022693    1.677451   -3.145625
      8          6           0       -0.218897    3.104131   -2.622305
      9          6           0       -1.627537    3.073968   -3.236935
     10          6           0        0.785510    3.971099   -3.345753
     11          1           0       -2.363612    3.676322   -2.676902
     12          1           0       -1.630789    3.364509   -4.307125
     13          1           0        0.853767    3.690805   -4.415277
     14          1           0        1.786694    3.877826   -2.883798
     15          1           0        0.473287    5.032032   -3.276708
     16          1           0       -0.258436    3.329221   -1.538835
     17          8           0       -0.985092    1.730305    0.121189
     18          6           0       -1.458606    1.952735    1.226217
     19          8           0       -2.631802    1.438652    1.658864
     20          8           0       -0.873114    2.737976    2.154413
     21          6           0       -2.776328    1.714858    3.097432
     22          6           0       -1.761476    2.855164    3.300537
     23          6           0       -2.486051    0.448771    3.879706
     24          1           0       -2.223067    3.860490    3.274593
     25          1           0       -1.153711    2.736225    4.215004
     26          1           0       -1.437880    0.121508    3.721933
     27          1           0       -3.166676   -0.363131    3.560929
     28          1           0       -2.642895    0.640012    4.959773
     29          1           0       -3.816724    2.059898    3.238811
     30          8           0        2.711725    0.109264   -1.045541
     31          6           0        3.025789    1.248677   -0.705508
     32          8           0        2.140330    2.208353   -0.386548
     33          8           0        4.301655    1.659326   -0.610449
     34          6           0        2.868727    3.354780    0.184077
     35          6           0        4.303687    3.083585   -0.303227
     36          6           0        2.681574    3.366783    1.688028
     37          1           0        4.559946    3.632315   -1.229508
     38          1           0        5.069192    3.262102    0.472414
     39          1           0        3.126932    2.462395    2.148557
     40          1           0        1.604319    3.395265    1.938771
     41          1           0        3.172589    4.264894    2.112250
     42          1           0        2.437134    4.255232   -0.290171
     43          8           0       -1.771670   -1.683187    0.835398
     44          6           0       -2.853428   -1.218589    0.475825
     45          8           0       -3.028571   -0.540338   -0.665368
     46          8           0       -3.983136   -1.348655    1.194184
     47          6           0       -4.377630    0.046028   -0.668525
     48          6           0       -5.080169   -0.783367    0.417754
     49          6           0       -4.968615   -0.042392   -2.055934
     50          1           0       -5.705297   -0.180208    1.098121
     51          1           0       -5.668312   -1.623576   -0.002593
     52          1           0       -5.052928   -1.097644   -2.381917
     53          1           0       -4.336611    0.513760   -2.773416
     54          1           0       -5.979773    0.410365   -2.054096
     55          1           0       -4.244528    1.097275   -0.344930
 ---------------------------------------------------------------------
 Rotational constants (GHZ):           0.0815165           0.0775816           0.0700576
 General basis read from cards:  (5D, 7F)
 ======================================================================================================
                                       Pseudopotential Parameters
 ======================================================================================================
  Center     Atomic      Valence      Angular      Power
  Number     Number     Electrons     Momentum     of R      Exponent        Coefficient   SO-Coeffient
 ======================================================================================================
    1         82            4
                                      G and up 
                                                     0      376.5803786       -0.17896050    0.00000000
                                                     1       86.4840014      -54.39723370    0.00000000
                                                     2       26.6784276     -199.70617590    0.00000000
                                                     2        9.4261986      -79.12239410    0.00000000
                                                     2        2.7101719      -24.98690200    0.00000000
                                                     2        0.8792031       -4.43979390    0.00000000
                                      S - G
                                                     0      132.4248796        2.81153860    0.00000000
                                                     1       47.2376044       65.03672050    0.00000000
                                                     2       17.6312727      212.78685450    0.00000000
                                                     2        5.4744712       72.10531750    0.00000000
                                                     2        1.2634856       33.01409400    0.00000000
                                                     2        0.7651447       -5.77084610    0.00000000
                                      P - G
                                                     0       67.8966454        4.87549110    0.00000000
                                                     1       24.9898225       63.91481020    0.00000000
                                                     2       10.7052939      148.10643580    0.00000000
                                                     2        3.2792568       47.31063010    0.00000000
                                                     2        0.8452522       21.03067020    0.00000000
                                                     2        0.6416245       -7.09307720    0.00000000
                                      D - G
                                                     0       68.8336005        3.21613880    0.00000000
                                                     1       24.2815874       55.73860860    0.00000000
                                                     2        9.4532762      121.41683510    0.00000000
                                                     2        2.4788185       19.34560640    0.00000000
                                                     2        2.4789161       15.36751680    0.00000000
                                                     2        0.5551738        6.12987240    0.00000000
                                      F - G
                                                     0      128.1021322        4.13536820    0.00000000
                                                     1       54.8029154       67.51284460    0.00000000
                                                     2       24.5529308      258.73731070    0.00000000
                                                     2        8.1144792      113.24782640    0.00000000
                                                     2        1.6931290       34.16802010    0.00000000
                                                     2        0.7670500       -6.55319560    0.00000000
    2         53            7
                                      F and up 
                                                     0        1.0715702       -0.07476210    0.00000000
                                                     1       44.1936028      -30.08112240    0.00000000
                                                     2       12.9367609      -75.37227210    0.00000000
                                                     2        3.1956412      -22.05637580    0.00000000
                                                     2        0.8589806       -1.69795850    0.00000000
                                      S - F
                                                     0      127.9202670        2.93800360    0.00000000
                                                     1       78.6211465       41.24712670    0.00000000
                                                     2       36.5146237      287.86800950    0.00000000
                                                     2        9.9065681      114.37585060    0.00000000
                                                     2        1.9420086       37.65477140    0.00000000
                                      P - F
                                                     0       13.0035304        2.22226300    0.00000000
                                                     1       76.0331404       39.40908310    0.00000000
                                                     2       24.1961684      177.40750020    0.00000000
                                                     2        6.4053433       77.98894620    0.00000000
                                                     2        1.5851786       25.75476410    0.00000000
                                      D - F
                                                     0       40.4278108        7.05243600    0.00000000
                                                     1       28.9084375       33.30416350    0.00000000
                                                     2       15.6268936      186.94538750    0.00000000
                                                     2        4.1442856       71.96883610    0.00000000
                                                     2        0.9377235        9.36306570    0.00000000
    3         53            7
                                      F and up 
                                                     0        1.0715702       -0.07476210    0.00000000
                                                     1       44.1936028      -30.08112240    0.00000000
                                                     2       12.9367609      -75.37227210    0.00000000
                                                     2        3.1956412      -22.05637580    0.00000000
                                                     2        0.8589806       -1.69795850    0.00000000
                                      S - F
                                                     0      127.9202670        2.93800360    0.00000000
                                                     1       78.6211465       41.24712670    0.00000000
                                                     2       36.5146237      287.86800950    0.00000000
                                                     2        9.9065681      114.37585060    0.00000000
                                                     2        1.9420086       37.65477140    0.00000000
                                      P - F
                                                     0       13.0035304        2.22226300    0.00000000
                                                     1       76.0331404       39.40908310    0.00000000
                                                     2       24.1961684      177.40750020    0.00000000
                                                     2        6.4053433       77.98894620    0.00000000
                                                     2        1.5851786       25.75476410    0.00000000
                                      D - F
                                                     0       40.4278108        7.05243600    0.00000000
                                                     1       28.9084375       33.30416350    0.00000000
                                                     2       15.6268936      186.94538750    0.00000000
                                                     2        4.1442856       71.96883610    0.00000000
                                                     2        0.9377235        9.36306570    0.00000000
    4          8
                                   No pseudopotential on this center.
    5          6
                                   No pseudopotential on this center.
    6          8
                                   No pseudopotential on this center.
    7          8
                                   No pseudopotential on this center.
    8          6
                                   No pseudopotential on this center.
    9          6
                                   No pseudopotential on this center.
   10          6
                                   No pseudopotential on this center.
   11          1
                                   No pseudopotential on this center.
   12          1
                                   No pseudopotential on this center.
   13          1
                                   No pseudopotential on this center.
   14          1
                                   No pseudopotential on this center.
   15          1
                                   No pseudopotential on this center.
   16          1
                                   No pseudopotential on this center.
   17          8
                                   No pseudopotential on this center.
   18          6
                                   No pseudopotential on this center.
   19          8
                                   No pseudopotential on this center.
   20          8
                                   No pseudopotential on this center.
   21          6
                                   No pseudopotential on this center.
   22          6
                                   No pseudopotential on this center.
   23          6
                                   No pseudopotential on this center.
   24          1
                                   No pseudopotential on this center.
   25          1
                                   No pseudopotential on this center.
   26          1
                                   No pseudopotential on this center.
   27          1
                                   No pseudopotential on this center.
   28          1
                                   No pseudopotential on this center.
   29          1
                                   No pseudopotential on this center.
   30          8
                                   No pseudopotential on this center.
   31          6
                                   No pseudopotential on this center.
   32          8
                                   No pseudopotential on this center.
   33          8
                                   No pseudopotential on this center.
   34          6
                                   No pseudopotential on this center.
   35          6
                                   No pseudopotential on this center.
   36          6
                                   No pseudopotential on this center.
   37          1
                                   No pseudopotential on this center.
   38          1
                                   No pseudopotential on this center.
   39          1
                                   No pseudopotential on this center.
   40          1
                                   No pseudopotential on this center.
   41          1
                                   No pseudopotential on this center.
   42          1
                                   No pseudopotential on this center.
   43          8
                                   No pseudopotential on this center.
   44          6
                                   No pseudopotential on this center.
   45          8
                                   No pseudopotential on this center.
   46          8
                                   No pseudopotential on this center.
   47          6
                                   No pseudopotential on this center.
   48          6
                                   No pseudopotential on this center.
   49          6
                                   No pseudopotential on this center.
   50          1
                                   No pseudopotential on this center.
   51          1
                                   No pseudopotential on this center.
   52          1
                                   No pseudopotential on this center.
   53          1
                                   No pseudopotential on this center.
   54          1
                                   No pseudopotential on this center.
   55          1
                                   No pseudopotential on this center.
 ======================================================================================================
 There are  1364 symmetry adapted cartesian basis functions of A   symmetry.
 There are  1200 symmetry adapted basis functions of A   symmetry.
  1200 basis functions,  1900 primitive gaussians,  1364 cartesian basis functions
   117 alpha electrons      117 beta electrons
       nuclear repulsion energy      3402.8271595242 Hartrees.
 NAtoms=   55 NActive=   55 NUniq=   55 SFac= 1.00D+00 NAtFMM=   60 NAOKFM=F Big=F
 Integral buffers will be    131072 words long.
 Raffenetti 1 integral format.
 Two-electron integral symmetry is turned on.
 Nuclear repulsion after empirical dispersion term =     3402.7574782642 Hartrees.
 Using the following non-standard input for PCM:
 eps=64.0
 --- end of non-standard input.
 ------------------------------------------------------------------------------
 Polarizable Continuum Model (PCM)
 =================================
 Model                : PCM.
 Atomic radii         : UFF (Universal Force Field).
 Polarization charges : Total charges.
 Charge compensation  : None.
 Solution method      : On-the-fly selection.
 Cavity type          : Scaled VdW (van der Waals Surface) (Alpha=1.100).
 Cavity algorithm     : GePol (No added spheres)
                        Default sphere list used, NSphG=   55.
                        Lebedev-Laikov grids with approx.  5.0 points / Ang**2.
                        Smoothing algorithm: York/Karplus (Gamma=1.0000).
                        Polarization charges: spherical gaussians, with
                                              point-specific exponents (IZeta= 3).
                        Self-potential: point-specific (ISelfS= 7).
                        Self-field    : sphere-specific E.n sum rule (ISelfD= 2).
 Solvent              : Water, Eps=  64.000000 Eps(inf)=   1.777849
 ------------------------------------------------------------------------------
 One-electron integrals computed using PRISM.
   1 Symmetry operations used in ECPInt.
 ECPInt:  NShTT=   95266 NPrTT=  366255 LenC2=   75378 LenP2D=  176689.
 LDataN:  DoStor=T MaxTD1= 7 Len=  274
 NBasis=  1200 RedAO= T EigKep=  3.83D-04  NBF=  1200
 NBsUse=  1200 1.00D-06 EigRej= -1.00D+00 NBFU=  1200
 Defaulting to unpruned grid for atomic number  82.
 Initial guess from the checkpoint file:  "02-PbI2_PC.chk"
 B after Tr=     0.000000   -0.000000   -0.000000
         Rot=    1.000000    0.000000   -0.000000   -0.000000 Ang=   0.00 deg.
 Requested convergence on RMS density matrix=1.00D-08 within 128 cycles.
 Requested convergence on MAX density matrix=1.00D-06.
 Requested convergence on             energy=1.00D-06.
 No special actions if energy rises.
 Defaulting to unpruned grid for atomic number  82.
 Defaulting to unpruned grid for atomic number  82.
 Defaulting to unpruned grid for atomic number  82.
 Defaulting to unpruned grid for atomic number  82.
 Inv3:  Mode=1 IEnd=    55857675.
 Iteration    1 A*A^-1 deviation from unit magnitude is 3.11D-15 for   2715.
 Iteration    1 A*A^-1 deviation from orthogonality  is 3.11D-15 for   3687     92.
 Iteration    1 A^-1*A deviation from unit magnitude is 3.33D-15 for   3420.
 Iteration    1 A^-1*A deviation from orthogonality  is 4.55D-15 for   3889   3633.
 Error on total polarization charges =  0.02288
 SCF Done:  E(RCAM-B3LYP) =  -1553.29559489     A.U. after   11 cycles
            NFock= 11  Conv=0.55D-08     -V/T= 2.0193
 DoSCS=F DFT=T ScalE2(SS,OS)=  1.000000  1.000000
 ExpMin= 5.98D-02 ExpMax= 1.53D+04 ExpMxC= 5.22D+02 IAcc=3 IRadAn=         5 AccDes= 0.00D+00
 HarFok:  IExCor=  205 AccDes= 0.00D+00 IRadAn=         5 IDoV=-2 UseB2=F ITyADJ=14
 ICtDFT= 12500011 ScaDFX=  1.000000  1.000000  1.000000  1.000000
 Defaulting to unpruned grid for atomic number  82.
 GSVD:  LWork=       -1008 too small for GESVD, short by        4340 words or        4340 for optimal perf.
 Range of M.O.s used for correlation:    29  1200
 NBasis=  1200 NAE=   117 NBE=   117 NFC=    28 NFV=     0
 NROrb=   1172 NOA=    89 NOB=    89 NVA=  1083 NVB=  1083

 **** Warning!!: The largest alpha MO coefficient is  0.11241419D+02

 NEqPCM:  Using non-equilibrium solvation (IEInf=1, Eps=  64.0000, EpsInf=   1.7778)
 Inv3:  Mode=1 IEnd=    55857675.
 Iteration    1 A*A^-1 deviation from unit magnitude is 3.55D-15 for    218.
 Iteration    1 A*A^-1 deviation from orthogonality  is 2.11D-15 for   3438   1490.
 Iteration    1 A^-1*A deviation from unit magnitude is 3.33D-15 for    442.
 Iteration    1 A^-1*A deviation from orthogonality  is 2.55D-15 for   2878    392.
 Orbital symmetries:
       Occupied  (A) (A) (A) (A) (A) (A) (A) (A) (A) (A) (A) (A)
                 (A) (A) (A) (A) (A) (A) (A) (A) (A) (A) (A) (A)
                 (A) (A) (A) (A) (A) (A) (A) (A) (A) (A) (A) (A)
                 (A) (A) (A) (A) (A) (A) (A) (A) (A) (A) (A) (A)
                 (A) (A) (A) (A) (A) (A) (A) (A) (A) (A) (A) (A)
                 (A) (A) (A) (A) (A) (A) (A) (A) (A) (A) (A) (A)
                 (A) (A) (A) (A) (A) (A) (A) (A) (A) (A) (A) (A)
                 (A) (A) (A) (A) (A) (A) (A) (A) (A) (A) (A) (A)
                 (A) (A) (A) (A) (A) (A) (A) (A) (A) (A) (A) (A)
                 (A) (A) (A) (A) (A) (A) (A) (A) (A)
       Virtual   (A) (A) (A) (A) (A) (A) (A) (A) (A) (A) (A) (A)
                 (A) (A) (A) (A) (A) (A) (A) (A) (A) (A) (A) (A)
                 (A) (A) (A) (A) (A) (A) (A) (A) (A) (A) (A) (A)
                 (A) (A) (A) (A) (A) (A) (A) (A) (A) (A) (A) (A)
                 (A) (A) (A) (A) (A) (A) (A) (A) (A) (A) (A) (A)
                 (A) (A) (A) (A) (A) (A) (A) (A) (A) (A) (A) (A)
                 (A) (A) (A) (A) (A) (A) (A) (A) (A) (A) (A) (A)
                 (A) (A) (A) (A) (A) (A) (A) (A) (A) (A) (A) (A)
                 (A) (A) (A) (A) (A) (A) (A) (A) (A) (A) (A) (A)
                 (A) (A) (A) (A) (A) (A) (A) (A) (A) (A) (A) (A)
                 (A) (A) (A) (A) (A) (A) (A) (A) (A) (A) (A) (A)
                 (A) (A) (A) (A) (A) (A) (A) (A) (A) (A) (A) (A)
                 (A) (A) (A) (A) (A) (A) (A) (A) (A) (A) (A) (A)
                 (A) (A) (A) (A) (A) (A) (A) (A) (A) (A) (A) (A)
                 (A) (A) (A) (A) (A) (A) (A) (A) (A) (A) (A) (A)
                 (A) (A) (A) (A) (A) (A) (A) (A) (A) (A) (A) (A)
                 (A) (A) (A) (A) (A) (A) (A) (A) (A) (A) (A) (A)
                 (A) (A) (A) (A) (A) (A) (A) (A) (A) (A) (A) (A)
                 (A) (A) (A) (A) (A) (A) (A) (A) (A) (A) (A) (A)
                 (A) (A) (A) (A) (A) (A) (A) (A) (A) (A) (A) (A)
                 (A) (A) (A) (A) (A) (A) (A) (A) (A) (A) (A) (A)
                 (A) (A) (A) (A) (A) (A) (A) (A) (A) (A) (A) (A)
                 (A) (A) (A) (A) (A) (A) (A) (A) (A) (A) (A) (A)
                 (A) (A) (A) (A) (A) (A) (A) (A) (A) (A) (A) (A)
                 (A) (A) (A) (A) (A) (A) (A) (A) (A) (A) (A) (A)
                 (A) (A) (A) (A) (A) (A) (A) (A) (A) (A) (A) (A)
                 (A) (A) (A) (A) (A) (A) (A) (A) (A) (A) (A) (A)
                 (A) (A) (A) (A) (A) (A) (A) (A) (A) (A) (A) (A)
                 (A) (A) (A) (A) (A) (A) (A) (A) (A) (A) (A) (A)
                 (A) (A) (A) (A) (A) (A) (A) (A) (A) (A) (A) (A)
                 (A) (A) (A) (A) (A) (A) (A) (A) (A) (A) (A) (A)
                 (A) (A) (A) (A) (A) (A) (A) (A) (A) (A) (A) (A)
                 (A) (A) (A) (A) (A) (A) (A) (A) (A) (A) (A) (A)
                 (A) (A) (A) (A) (A) (A) (A) (A) (A) (A) (A) (A)
                 (A) (A) (A) (A) (A) (A) (A) (A) (A) (A) (A) (A)
                 (A) (A) (A) (A) (A) (A) (A) (A) (A) (A) (A) (A)
                 (A) (A) (A) (A) (A) (A) (A) (A) (A) (A) (A) (A)
                 (A) (A) (A) (A) (A) (A) (A) (A) (A) (A) (A) (A)
                 (A) (A) (A) (A) (A) (A) (A) (A) (A) (A) (A) (A)
                 (A) (A) (A) (A) (A) (A) (A) (A) (A) (A) (A) (A)
                 (A) (A) (A) (A) (A) (A) (A) (A) (A) (A) (A) (A)
                 (A) (A) (A) (A) (A) (A) (A) (A) (A) (A) (A) (A)
                 (A) (A) (A) (A) (A) (A) (A) (A) (A) (A) (A) (A)
                 (A) (A) (A) (A) (A) (A) (A) (A) (A) (A) (A) (A)
                 (A) (A) (A) (A) (A) (A) (A) (A) (A) (A) (A) (A)
                 (A) (A) (A) (A) (A) (A) (A) (A) (A) (A) (A) (A)
                 (A) (A) (A) (A) (A) (A) (A) (A) (A) (A) (A) (A)
                 (A) (A) (A) (A) (A) (A) (A) (A) (A) (A) (A) (A)
                 (A) (A) (A) (A) (A) (A) (A) (A) (A) (A) (A) (A)
                 (A) (A) (A) (A) (A) (A) (A) (A) (A) (A) (A) (A)
                 (A) (A) (A) (A) (A) (A) (A) (A) (A) (A) (A) (A)
                 (A) (A) (A) (A) (A) (A) (A) (A) (A) (A) (A) (A)
                 (A) (A) (A) (A) (A) (A) (A) (A) (A) (A) (A) (A)
                 (A) (A) (A) (A) (A) (A) (A) (A) (A) (A) (A) (A)
                 (A) (A) (A) (A) (A) (A) (A) (A) (A) (A) (A) (A)
                 (A) (A) (A) (A) (A) (A) (A) (A) (A) (A) (A) (A)
                 (A) (A) (A) (A) (A) (A) (A) (A) (A) (A) (A) (A)
                 (A) (A) (A) (A) (A) (A) (A) (A) (A) (A) (A) (A)
                 (A) (A) (A) (A) (A) (A) (A) (A) (A) (A) (A) (A)
                 (A) (A) (A) (A) (A) (A) (A) (A) (A) (A) (A) (A)
                 (A) (A) (A) (A) (A) (A) (A) (A) (A) (A) (A) (A)
                 (A) (A) (A) (A) (A) (A) (A) (A) (A) (A) (A) (A)
                 (A) (A) (A) (A) (A) (A) (A) (A) (A) (A) (A) (A)
                 (A) (A) (A) (A) (A) (A) (A) (A) (A) (A) (A) (A)
                 (A) (A) (A) (A) (A) (A) (A) (A) (A) (A) (A) (A)
                 (A) (A) (A) (A) (A) (A) (A) (A) (A) (A) (A) (A)
                 (A) (A) (A) (A) (A) (A) (A) (A) (A) (A) (A) (A)
                 (A) (A) (A) (A) (A) (A) (A) (A) (A) (A) (A) (A)
                 (A) (A) (A) (A) (A) (A) (A) (A) (A) (A) (A) (A)
                 (A) (A) (A) (A) (A) (A) (A) (A) (A) (A) (A) (A)
                 (A) (A) (A) (A) (A) (A) (A) (A) (A) (A) (A) (A)
                 (A) (A) (A) (A) (A) (A) (A) (A) (A) (A) (A) (A)
                 (A) (A) (A) (A) (A) (A) (A) (A) (A) (A) (A) (A)
                 (A) (A) (A) (A) (A) (A) (A) (A) (A) (A) (A) (A)
                 (A) (A) (A) (A) (A) (A) (A) (A) (A) (A) (A) (A)
                 (A) (A) (A) (A) (A) (A) (A) (A) (A) (A) (A) (A)
                 (A) (A) (A) (A) (A) (A) (A) (A) (A) (A) (A) (A)
                 (A) (A) (A) (A) (A) (A) (A) (A) (A) (A) (A) (A)
                 (A) (A) (A) (A) (A) (A) (A) (A) (A) (A) (A) (A)
                 (A) (A) (A) (A) (A) (A) (A) (A) (A) (A) (A) (A)
                 (A) (A) (A) (A) (A) (A) (A) (A) (A) (A) (A) (A)
                 (A) (A) (A) (A) (A) (A) (A) (A) (A) (A) (A) (A)
                 (A) (A) (A) (A) (A) (A) (A) (A) (A) (A) (A) (A)
                 (A) (A) (A) (A) (A) (A) (A) (A) (A) (A) (A) (A)
                 (A) (A) (A) (A) (A) (A) (A) (A) (A) (A) (A) (A)
                 (A) (A) (A) (A) (A) (A) (A) (A) (A) (A) (A) (A)
                 (A) (A) (A) (A) (A) (A) (A) (A) (A) (A) (A) (A)
                 (A) (A) (A) (A) (A) (A) (A) (A) (A) (A) (A) (A)
                 (A) (A) (A) (A) (A) (A) (A) (A) (A) (A) (A) (A)
                 (A) (A) (A) (A) (A) (A) (A) (A) (A) (A) (A) (A)
                 (A) (A) (A)
    40 initial guesses have been made.
 Convergence on wavefunction:    0.001000000000000
 Iteration     1 Dimension    40 NMult     0 NNew     40
 CISAX will form    40 AO SS matrices at one time.
 Defaulting to unpruned grid for atomic number  82.
 Defaulting to unpruned grid for atomic number  82.
 Defaulting to unpruned grid for atomic number  82.
 Defaulting to unpruned grid for atomic number  82.
 New state      1 was old state      3
 New state      2 was old state      4
 New state      3 was old state      5
 New state      4 was old state      1
 New state      5 was old state      6
 New state      6 was old state      7
 New state      7 was old state      2
 New state      9 was old state     10
 New state     10 was old state      9
 Iteration     2 Dimension    60 NMult    40 NNew     20
 New state      3 was old state      4
 New state      4 was old state      3
 Iteration     3 Dimension    80 NMult    60 NNew     20
 Iteration     4 Dimension   100 NMult    80 NNew     20
 Iteration     5 Dimension   120 NMult   100 NNew     20
 Iteration     6 Dimension   128 NMult   120 NNew      8
 ***********************************************************************
 Excited states from <AA,BB:AA,BB> singles matrix:
 ***********************************************************************
 
 Ground to excited state transition densities written to RWF  633
 Ground to excited state transition electric dipole moments (Au):
       state          X           Y           Z        Dip. S.      Osc.
         1         0.1633      0.0620      0.4512      0.2341      0.0301
         2        -0.5419      0.7299     -0.3414      0.9431      0.1227
         3        -0.4234      0.4189     -0.2951      0.4419      0.0584
         4        -0.0642     -0.1024      0.0542      0.0175      0.0023
         5        -0.1745      0.0887     -0.0250      0.0389      0.0052
         6        -0.4933     -0.5307     -0.0092      0.5251      0.0711
         7         0.0734     -0.9228     -1.3319      2.6309      0.3622
         8        -0.0234      0.0630      0.0861      0.0119      0.0017
         9         0.0159     -0.0836     -0.1062      0.0185      0.0026
        10         0.0615     -0.0054      0.0497      0.0063      0.0009
 Ground to excited state transition velocity dipole moments (Au):
       state          X           Y           Z        Dip. S.      Osc.
         1        -0.0271      0.0099     -0.0559      0.0040      0.0137
         2         0.1048     -0.1402      0.0709      0.0357      0.1218
         3         0.0670     -0.0591      0.0299      0.0089      0.0298
         4         0.0347      0.0248     -0.0128      0.0020      0.0067
         5         0.0568     -0.0038     -0.0086      0.0033      0.0110
         6         0.1191      0.1036     -0.0103      0.0250      0.0821
         7        -0.0249      0.1439      0.2152      0.0677      0.2184
         8         0.0013     -0.0125     -0.0127      0.0003      0.0010
         9         0.0013      0.0168      0.0154      0.0005      0.0016
        10        -0.0094     -0.0002     -0.0074      0.0001      0.0004
 Ground to excited state transition magnetic dipole moments (Au):
       state          X           Y           Z
         1        -0.3585     -0.0919      0.1651
         2        -0.6164     -0.3413      0.0754
         3        -0.3523     -0.2380      0.0267
         4         0.0838      0.1626      0.1567
         5         0.0204      0.0755      0.3324
         6         0.1739     -0.4521     -0.0237
         7        -0.0282     -0.0262      0.0390
         8        -0.0394     -0.0403     -0.0742
         9        -0.0318      0.0819     -0.0408
        10         0.2285     -0.2173      0.1224
 Ground to excited state transition velocity quadrupole moments (Au):
       state          XX          YY          ZZ          XY          XZ          YZ
         1        -0.0626      0.2482     -0.1755     -0.0494     -0.0889      0.0030
         2        -0.0531      0.4949     -0.2338     -0.3473      0.1832     -0.1506
         3        -0.1543      0.2280      0.1493      0.0295      0.1352      0.3731
         4         0.2740     -0.0336     -0.2318      0.0592      0.1991      0.0249
         5         0.2565     -0.2271      0.0591     -0.3588     -0.1000      0.1763
         6         0.0582     -0.2511      0.0563      0.1446      0.0063     -0.0639
         7         0.2431     -1.2305      0.5029      0.3521      0.2766     -0.3281
         8        -0.0786      0.1355     -0.0507      0.0043      0.0050     -0.0000
         9         0.0954     -0.0751     -0.0300      0.1135      0.0662     -0.0108
        10         0.0289     -0.0167      0.0005     -0.0298      0.0059     -0.0507
 <0|del|b> * <b|rxdel|0> + <0|del|b> * <b|delr+rdel|0>
 Rotatory Strengths (R) in cgs (10**-40 erg-esu-cm/Gauss)
       state          XX          YY          ZZ    R(velocity)    E-M Angle
         1       -11.9004     -4.3094     14.6787     -0.5104       90.94
         2        98.2250    -91.3080    -48.2986    -13.7939       94.90
         3        42.2779      2.3332    -75.7484    -10.3791      102.58
         4        -6.5326      4.4928     19.6150      5.8584       62.61
         5        -0.7800      9.2430    -15.4839     -2.3403       95.80
         6       -84.7758     25.8261    -31.0519    -30.0005      109.70
         7        69.4854   -100.1974     48.9170      6.0683       68.08
         8         2.4264      1.5799      0.6522      1.5528       33.03
         9         2.3002     -4.0408      4.0946      0.7847       71.33
        10        -1.0681     -4.6172     -4.2740     -3.3197      138.22
 1/2[<0|r|b>*<b|rxdel|0> + (<0|rxdel|b>*<b|r|0>)*]
 Rotatory Strengths (R) in cgs (10**-40 erg-esu-cm/Gauss)
       state          XX          YY          ZZ     R(length)
         1        41.4108      4.0307    -52.6757     -2.4114
         2      -236.2201    176.1534     18.1989    -13.9559
         3      -105.4833     70.5075      5.5763     -9.7998
         4         3.8027     11.7783     -6.0044      3.1922
         5         2.5124     -4.7353      5.8653      1.2141
         6        60.6643   -169.6860     -0.1547    -36.3921
         7         1.4631    -17.0935     36.6883      7.0193
         8        -0.6532      1.7971      4.5195      1.8878
         9         0.3585      4.8424     -3.0660      0.7116
        10        -9.9443     -0.8222     -4.3049     -5.0238
  1/2[<0|del|b>*<b|r|0> + (<0|r|b>*<b|del|0>)*] (Au)
       state          X           Y           Z        Dip. S.   Osc.(frdel)
         1        -0.0044      0.0006     -0.0252      0.0290      0.0193
         2        -0.0568     -0.1023     -0.0242      0.1833      0.1222
         3        -0.0284     -0.0247     -0.0088      0.0619      0.0413
         4        -0.0022     -0.0025     -0.0007      0.0055      0.0036
         5        -0.0099     -0.0003      0.0002      0.0100      0.0067
         6        -0.0588     -0.0550      0.0001      0.1136      0.0758
         7        -0.0018     -0.1328     -0.2867      0.4213      0.2809
         8        -0.0000     -0.0008     -0.0011      0.0019      0.0013
         9         0.0000     -0.0014     -0.0016      0.0030      0.0020
        10        -0.0006      0.0000     -0.0004      0.0009      0.0006

 Excitation energies and oscillator strengths:
 
 Excited State   1:      Singlet-A      5.2483 eV  236.24 nm  f=0.0301  <S**2>=0.000
     116 -> 118        0.48918
     117 -> 118       -0.26257
     117 -> 119       -0.39735
 This state for optimization and/or second-order correction.
 Total Energy, E(TD-HF/TD-DFT) =  -1553.10272246    
 Copying the excited state density for this state as the 1-particle RhoCI density.
 
 Excited State   2:      Singlet-A      5.3112 eV  233.44 nm  f=0.1227  <S**2>=0.000
     113 -> 118        0.14346
     116 -> 119       -0.34194
     117 -> 118        0.53119
     117 -> 119       -0.21617
 
 Excited State   3:      Singlet-A      5.3988 eV  229.65 nm  f=0.0584  <S**2>=0.000
     113 -> 118       -0.12973
     115 -> 118        0.11485
     116 -> 118        0.19776
     116 -> 119        0.53118
     117 -> 118        0.32968
 
 Excited State   4:      Singlet-A      5.4073 eV  229.29 nm  f=0.0023  <S**2>=0.000
     114 -> 118        0.17130
     114 -> 119        0.15739
     115 -> 118        0.60942
     115 -> 119        0.18543
 
 Excited State   5:      Singlet-A      5.4459 eV  227.67 nm  f=0.0052  <S**2>=0.000
     114 -> 118        0.31844
     114 -> 119       -0.39689
     115 -> 118       -0.11835
     115 -> 119        0.40310
     117 -> 120       -0.18576
 
 Excited State   6:      Singlet-A      5.5293 eV  224.23 nm  f=0.0711  <S**2>=0.000
     114 -> 118        0.11613
     115 -> 119        0.12939
     117 -> 119        0.13290
     117 -> 120        0.63746
 
 Excited State   7:      Singlet-A      5.6196 eV  220.63 nm  f=0.3622  <S**2>=0.000
     112 -> 118       -0.13414
     113 -> 119       -0.20660
     115 -> 120        0.20858
     116 -> 118        0.34883
     116 -> 119       -0.10160
     117 -> 119        0.44726
     117 -> 120       -0.16069
 
 Excited State   8:      Singlet-A      5.7626 eV  215.15 nm  f=0.0017  <S**2>=0.000
     114 -> 118       -0.40178
     114 -> 119        0.22132
     115 -> 118       -0.10117
     115 -> 119        0.51687
 
 Excited State   9:      Singlet-A      5.7904 eV  214.12 nm  f=0.0026  <S**2>=0.000
     114 -> 118        0.41151
     114 -> 119        0.48487
     115 -> 118       -0.26873
 
 Excited State  10:      Singlet-A      5.8169 eV  213.14 nm  f=0.0009  <S**2>=0.000
     116 -> 120        0.68027
 SavETr:  write IOETrn=   770 NScale= 10 NData=  16 NLR=1 NState=   10 LETran=     190.

 **********************************************************************

            Population analysis using the SCF Density.

 **********************************************************************

 Orbital symmetries:
       Occupied  (A) (A) (A) (A) (A) (A) (A) (A) (A) (A) (A) (A)
                 (A) (A) (A) (A) (A) (A) (A) (A) (A) (A) (A) (A)
                 (A) (A) (A) (A) (A) (A) (A) (A) (A) (A) (A) (A)
                 (A) (A) (A) (A) (A) (A) (A) (A) (A) (A) (A) (A)
                 (A) (A) (A) (A) (A) (A) (A) (A) (A) (A) (A) (A)
                 (A) (A) (A) (A) (A) (A) (A) (A) (A) (A) (A) (A)
                 (A) (A) (A) (A) (A) (A) (A) (A) (A) (A) (A) (A)
                 (A) (A) (A) (A) (A) (A) (A) (A) (A) (A) (A) (A)
                 (A) (A) (A) (A) (A) (A) (A) (A) (A) (A) (A) (A)
                 (A) (A) (A) (A) (A) (A) (A) (A) (A)
       Virtual   (A) (A) (A) (A) (A) (A) (A) (A) (A) (A) (A) (A)
                 (A) (A) (A) (A) (A) (A) (A) (A) (A) (A) (A) (A)
                 (A) (A) (A) (A) (A) (A) (A) (A) (A) (A) (A) (A)
                 (A) (A) (A) (A) (A) (A) (A) (A) (A) (A) (A) (A)
                 (A) (A) (A) (A) (A) (A) (A) (A) (A) (A) (A) (A)
                 (A) (A) (A) (A) (A) (A) (A) (A) (A) (A) (A) (A)
                 (A) (A) (A) (A) (A) (A) (A) (A) (A) (A) (A) (A)
                 (A) (A) (A) (A) (A) (A) (A) (A) (A) (A) (A) (A)
                 (A) (A) (A) (A) (A) (A) (A) (A) (A) (A) (A) (A)
                 (A) (A) (A) (A) (A) (A) (A) (A) (A) (A) (A) (A)
                 (A) (A) (A) (A) (A) (A) (A) (A) (A) (A) (A) (A)
                 (A) (A) (A) (A) (A) (A) (A) (A) (A) (A) (A) (A)
                 (A) (A) (A) (A) (A) (A) (A) (A) (A) (A) (A) (A)
                 (A) (A) (A) (A) (A) (A) (A) (A) (A) (A) (A) (A)
                 (A) (A) (A) (A) (A) (A) (A) (A) (A) (A) (A) (A)
                 (A) (A) (A) (A) (A) (A) (A) (A) (A) (A) (A) (A)
                 (A) (A) (A) (A) (A) (A) (A) (A) (A) (A) (A) (A)
                 (A) (A) (A) (A) (A) (A) (A) (A) (A) (A) (A) (A)
                 (A) (A) (A) (A) (A) (A) (A) (A) (A) (A) (A) (A)
                 (A) (A) (A) (A) (A) (A) (A) (A) (A) (A) (A) (A)
                 (A) (A) (A) (A) (A) (A) (A) (A) (A) (A) (A) (A)
                 (A) (A) (A) (A) (A) (A) (A) (A) (A) (A) (A) (A)
                 (A) (A) (A) (A) (A) (A) (A) (A) (A) (A) (A) (A)
                 (A) (A) (A) (A) (A) (A) (A) (A) (A) (A) (A) (A)
                 (A) (A) (A) (A) (A) (A) (A) (A) (A) (A) (A) (A)
                 (A) (A) (A) (A) (A) (A) (A) (A) (A) (A) (A) (A)
                 (A) (A) (A) (A) (A) (A) (A) (A) (A) (A) (A) (A)
                 (A) (A) (A) (A) (A) (A) (A) (A) (A) (A) (A) (A)
                 (A) (A) (A) (A) (A) (A) (A) (A) (A) (A) (A) (A)
                 (A) (A) (A) (A) (A) (A) (A) (A) (A) (A) (A) (A)
                 (A) (A) (A) (A) (A) (A) (A) (A) (A) (A) (A) (A)
                 (A) (A) (A) (A) (A) (A) (A) (A) (A) (A) (A) (A)
                 (A) (A) (A) (A) (A) (A) (A) (A) (A) (A) (A) (A)
                 (A) (A) (A) (A) (A) (A) (A) (A) (A) (A) (A) (A)
                 (A) (A) (A) (A) (A) (A) (A) (A) (A) (A) (A) (A)
                 (A) (A) (A) (A) (A) (A) (A) (A) (A) (A) (A) (A)
                 (A) (A) (A) (A) (A) (A) (A) (A) (A) (A) (A) (A)
                 (A) (A) (A) (A) (A) (A) (A) (A) (A) (A) (A) (A)
                 (A) (A) (A) (A) (A) (A) (A) (A) (A) (A) (A) (A)
                 (A) (A) (A) (A) (A) (A) (A) (A) (A) (A) (A) (A)
                 (A) (A) (A) (A) (A) (A) (A) (A) (A) (A) (A) (A)
                 (A) (A) (A) (A) (A) (A) (A) (A) (A) (A) (A) (A)
                 (A) (A) (A) (A) (A) (A) (A) (A) (A) (A) (A) (A)
                 (A) (A) (A) (A) (A) (A) (A) (A) (A) (A) (A) (A)
                 (A) (A) (A) (A) (A) (A) (A) (A) (A) (A) (A) (A)
                 (A) (A) (A) (A) (A) (A) (A) (A) (A) (A) (A) (A)
                 (A) (A) (A) (A) (A) (A) (A) (A) (A) (A) (A) (A)
                 (A) (A) (A) (A) (A) (A) (A) (A) (A) (A) (A) (A)
                 (A) (A) (A) (A) (A) (A) (A) (A) (A) (A) (A) (A)
                 (A) (A) (A) (A) (A) (A) (A) (A) (A) (A) (A) (A)
                 (A) (A) (A) (A) (A) (A) (A) (A) (A) (A) (A) (A)
                 (A) (A) (A) (A) (A) (A) (A) (A) (A) (A) (A) (A)
                 (A) (A) (A) (A) (A) (A) (A) (A) (A) (A) (A) (A)
                 (A) (A) (A) (A) (A) (A) (A) (A) (A) (A) (A) (A)
                 (A) (A) (A) (A) (A) (A) (A) (A) (A) (A) (A) (A)
                 (A) (A) (A) (A) (A) (A) (A) (A) (A) (A) (A) (A)
                 (A) (A) (A) (A) (A) (A) (A) (A) (A) (A) (A) (A)
                 (A) (A) (A) (A) (A) (A) (A) (A) (A) (A) (A) (A)
                 (A) (A) (A) (A) (A) (A) (A) (A) (A) (A) (A) (A)
[...]
 Alpha virt. eigenvalues --    1.17086   1.18114   1.18314   1.18872   1.19389
 Alpha virt. eigenvalues --    1.20654   1.20984   1.21389   1.21764   1.21941
 Alpha virt. eigenvalues --    1.22127   1.22525   1.23229   1.24100   1.24489
 Alpha virt. eigenvalues --    1.25042   1.25356   1.25402   1.25784   1.26018
 Alpha virt. eigenvalues --    1.26413   1.27434   1.27669   1.28026   1.29010
 Alpha virt. eigenvalues --    1.29623   1.30976   1.31105   1.32403   1.32717
 Alpha virt. eigenvalues --    1.33248   1.33665   1.33862   1.35002   1.35590
 Alpha virt. eigenvalues --    1.36002   1.36391   1.36746   1.37117   1.37619
 Alpha virt. eigenvalues --    1.38308   1.38627   1.39144   1.39459   1.40260
 Alpha virt. eigenvalues --    1.40474   1.41095   1.41715   1.42189   1.42778
 Alpha virt. eigenvalues --    1.43660   1.44461   1.44633   1.45196   1.45333
 Alpha virt. eigenvalues --    1.45764   1.46425   1.46652   1.46924   1.47130
 Alpha virt. eigenvalues --    1.47917   1.48135   1.48452   1.49199   1.49995
 Alpha virt. eigenvalues --    1.50232   1.50614   1.50931   1.51805   1.52160
 Alpha virt. eigenvalues --    1.52665   1.53682   1.54495   1.54688   1.55185
 Alpha virt. eigenvalues --    1.56483   1.57026   1.57958   1.58326   1.59011
 Alpha virt. eigenvalues --    1.59330   1.59731   1.60645   1.61288   1.61591
 Alpha virt. eigenvalues --    1.62628   1.63473   1.64244   1.65308   1.66342
 Alpha virt. eigenvalues --    1.66551   1.66938   1.69072   1.70113   1.71706
 Alpha virt. eigenvalues --    1.72219   1.72834   1.73514   1.74440   1.75263
 Alpha virt. eigenvalues --    1.76346   1.76560   1.77878   1.78777   1.79383
 Alpha virt. eigenvalues --    1.80115   1.80591   1.81702   1.82693   1.82944
 Alpha virt. eigenvalues --    1.83622   1.84132   1.85189   1.87190   1.88124
 Alpha virt. eigenvalues --    1.91799   1.93118   1.94533   1.95384   1.97070
 Alpha virt. eigenvalues --    1.97431   1.98108   1.98428   2.00592   2.01459
 Alpha virt. eigenvalues --    2.02902   2.03758   2.05456   2.06032   2.07165
 Alpha virt. eigenvalues --    2.07697   2.09902   2.12328   2.13687   2.14590
 Alpha virt. eigenvalues --    2.15344   2.15458   2.15700   2.16614   2.16935
 Alpha virt. eigenvalues --    2.17441   2.18122   2.18645   2.19470   2.20145
 Alpha virt. eigenvalues --    2.21303   2.22689   2.23424   2.24054   2.25293
 Alpha virt. eigenvalues --    2.26559   2.26865   2.27692   2.28843   2.29599
 Alpha virt. eigenvalues --    2.31163   2.32332   2.32546   2.33061   2.34239
 Alpha virt. eigenvalues --    2.35051   2.35705   2.36648   2.37256   2.38818
 Alpha virt. eigenvalues --    2.39369   2.39705   2.41375   2.41831   2.41988
 Alpha virt. eigenvalues --    2.42601   2.43215   2.44385   2.44720   2.45536
 Alpha virt. eigenvalues --    2.46402   2.47126   2.47667   2.48237   2.48722
 Alpha virt. eigenvalues --    2.49537   2.50679   2.51002   2.51846   2.52815
 Alpha virt. eigenvalues --    2.53403   2.54566   2.55159   2.55332   2.56263
 Alpha virt. eigenvalues --    2.57144   2.57520   2.58395   2.59192   2.59665
 Alpha virt. eigenvalues --    2.60217   2.60482   2.61051   2.61937   2.62225
 Alpha virt. eigenvalues --    2.63140   2.63176   2.63463   2.64508   2.64863
 Alpha virt. eigenvalues --    2.65722   2.66645   2.67480   2.68582   2.68768
 Alpha virt. eigenvalues --    2.69217   2.69310   2.69648   2.70736   2.71227
 Alpha virt. eigenvalues --    2.71580   2.72292   2.72705   2.72940   2.73846
 Alpha virt. eigenvalues --    2.74675   2.75124   2.76055   2.76181   2.76547
 Alpha virt. eigenvalues --    2.77883   2.78644   2.79260   2.79672   2.81225
 Alpha virt. eigenvalues --    2.84064   2.84380   2.84781   2.85788   2.86509
 Alpha virt. eigenvalues --    2.87415   2.88148   2.88280   2.88582   2.89436
 Alpha virt. eigenvalues --    2.89484   2.90430   2.91189   2.92256   2.92685
 Alpha virt. eigenvalues --    2.93083   2.94258   2.94709   2.95436   2.96201
 Alpha virt. eigenvalues --    2.96465   2.97249   2.97450   2.97621   2.98091
 Alpha virt. eigenvalues --    2.98208   2.98748   2.99005   2.99187   3.00044
 Alpha virt. eigenvalues --    3.00468   3.00885   3.01274   3.01579   3.02511
 Alpha virt. eigenvalues --    3.02889   3.03435   3.03576   3.04047   3.04225
 Alpha virt. eigenvalues --    3.04480   3.05172   3.05402   3.05538   3.05717
 Alpha virt. eigenvalues --    3.06003   3.06355   3.06976   3.07333   3.07673
 Alpha virt. eigenvalues --    3.08234   3.08592   3.08962   3.10093   3.10578
 Alpha virt. eigenvalues --    3.11174   3.11607   3.12196   3.12538   3.13067
 Alpha virt. eigenvalues --    3.13273   3.13599   3.14049   3.14494   3.14776
 Alpha virt. eigenvalues --    3.14956   3.15408   3.15519   3.16369   3.16691
 Alpha virt. eigenvalues --    3.16821   3.17243   3.17459   3.17630   3.18100
 Alpha virt. eigenvalues --    3.18462   3.18604   3.19226   3.19815   3.19932
 Alpha virt. eigenvalues --    3.20513   3.21447   3.22780   3.23229   3.24260
 Alpha virt. eigenvalues --    3.24560   3.24897   3.25378   3.26041   3.26647
 Alpha virt. eigenvalues --    3.27123   3.27592   3.27941   3.28761   3.29415
 Alpha virt. eigenvalues --    3.29509   3.30446   3.30826   3.30930   3.32194
 Alpha virt. eigenvalues --    3.32467   3.33107   3.33507   3.33911   3.34177
 Alpha virt. eigenvalues --    3.34595   3.34894   3.34984   3.35549   3.36013
 Alpha virt. eigenvalues --    3.36818   3.37211   3.38063   3.38275   3.38897
 Alpha virt. eigenvalues --    3.39536   3.39724   3.39969   3.40869   3.41586
 Alpha virt. eigenvalues --    3.41901   3.42358   3.43095   3.43893   3.44176
 Alpha virt. eigenvalues --    3.44822   3.45558   3.45810   3.46209   3.46813
 Alpha virt. eigenvalues --    3.47445   3.48258   3.48982   3.49709   3.50112
 Alpha virt. eigenvalues --    3.50460   3.51099   3.51196   3.51599   3.51809
 Alpha virt. eigenvalues --    3.51932   3.52530   3.52974   3.53240   3.53721
 Alpha virt. eigenvalues --    3.54509   3.54604   3.55076   3.55561   3.55986
 Alpha virt. eigenvalues --    3.56679   3.56957   3.57231   3.57505   3.58250
 Alpha virt. eigenvalues --    3.58517   3.58974   3.59402   3.60171   3.60684
 Alpha virt. eigenvalues --    3.60751   3.61471   3.61969   3.64746   3.64925
 Alpha virt. eigenvalues --    3.65408   3.65569   3.65850   3.66339   3.66962
 Alpha virt. eigenvalues --    3.68359   3.69402   3.70514   3.70844   3.71933
 Alpha virt. eigenvalues --    3.72839   3.73444   3.73810   3.74584   3.75003
 Alpha virt. eigenvalues --    3.75394   3.76173   3.76515   3.79020   3.79604
 Alpha virt. eigenvalues --    3.80334   3.80675   3.80875   3.81289   3.81590
 Alpha virt. eigenvalues --    3.81960   3.83234   3.84720   3.85615   3.86563
 Alpha virt. eigenvalues --    3.87403   3.88107   3.88618   3.89512   3.89852
 Alpha virt. eigenvalues --    3.90409   3.91199   3.91533   3.91696   3.91816
 Alpha virt. eigenvalues --    3.93779   3.94396   3.94733   3.95219   3.95767
 Alpha virt. eigenvalues --    3.96294   3.96751   3.97153   3.97664   3.98625
 Alpha virt. eigenvalues --    3.98934   3.99572   4.00213   4.00754   4.00865
 Alpha virt. eigenvalues --    4.01752   4.01960   4.02037   4.02642   4.03211
 Alpha virt. eigenvalues --    4.03780   4.04140   4.04756   4.05077   4.06340
 Alpha virt. eigenvalues --    4.06475   4.06744   4.07392   4.08605   4.08698
 Alpha virt. eigenvalues --    4.09505   4.10372   4.10734   4.11057   4.12087
 Alpha virt. eigenvalues --    4.12846   4.13080   4.13684   4.14051   4.14377
 Alpha virt. eigenvalues --    4.14752   4.14971   4.15161   4.15554   4.15690
 Alpha virt. eigenvalues --    4.16121   4.16479   4.16808   4.17317   4.17368
 Alpha virt. eigenvalues --    4.17659   4.18652   4.18882   4.19415   4.20219
 Alpha virt. eigenvalues --    4.20694   4.21063   4.21848   4.22202   4.23094
 Alpha virt. eigenvalues --    4.23657   4.25108   4.25764   4.26454   4.27041
 Alpha virt. eigenvalues --    4.28034   4.28922   4.29545   4.30563   4.30797
 Alpha virt. eigenvalues --    4.31312   4.31541   4.32630   4.32772   4.33174
 Alpha virt. eigenvalues --    4.33495   4.34643   4.35318   4.36046   4.37004
 Alpha virt. eigenvalues --    4.37444   4.38380   4.38868   4.39481   4.40256
 Alpha virt. eigenvalues --    4.41301   4.41470   4.41756   4.42833   4.43877
 Alpha virt. eigenvalues --    4.44110   4.45387   4.46529   4.46788   4.46983
 Alpha virt. eigenvalues --    4.49154   4.51500   4.53770   4.54307   4.54822
 Alpha virt. eigenvalues --    4.55523   4.56607   4.58706   4.59470   4.60233
 Alpha virt. eigenvalues --    4.61088   4.62983   4.63232   4.67357   4.68729
 Alpha virt. eigenvalues --    4.70186   4.71053   4.72573   4.73215   4.75678
 Alpha virt. eigenvalues --    4.75745   4.76851   4.77493   4.80515   4.80986
 Alpha virt. eigenvalues --    4.81191   4.82253   4.83179   4.83681   4.84390
 Alpha virt. eigenvalues --    4.84960   4.85907   4.86197   4.87260   4.87894
 Alpha virt. eigenvalues --    4.88911   4.89397   4.89516   4.89985   4.90267
 Alpha virt. eigenvalues --    4.91654   4.92382   4.93335   4.94125   4.94421
 Alpha virt. eigenvalues --    4.95390   4.95914   4.97204   4.98442   4.98582
 Alpha virt. eigenvalues --    4.99103   4.99964   5.01020   5.02214   5.02741
 Alpha virt. eigenvalues --    5.08380   5.08853   5.09045   5.09293   5.09692
 Alpha virt. eigenvalues --    5.10049   5.12851   5.13364   5.16617   5.16920
 Alpha virt. eigenvalues --    5.17280   5.17830   5.18278   5.18502   5.19540
 Alpha virt. eigenvalues --    5.19715   5.19938   5.20191   5.20464   5.20664
 Alpha virt. eigenvalues --    5.20829   5.21115   5.21279   5.21592   5.21875
 Alpha virt. eigenvalues --    5.22541   5.22614   5.23162   5.24349   5.24577
 Alpha virt. eigenvalues --    5.25127   5.25659   5.26372   5.26642   5.27389
 Alpha virt. eigenvalues --    5.27887   5.30429   5.30640   5.31423   5.32282
 Alpha virt. eigenvalues --    5.33277   5.33516   5.34204   5.34907   5.35053
 Alpha virt. eigenvalues --    5.35418   5.36238   5.36451   5.37758   5.38841
 Alpha virt. eigenvalues --    5.39434   5.39893   5.40635   5.40992   5.41343
 Alpha virt. eigenvalues --    5.41672   5.42471   5.42533   5.44207   5.44280
 Alpha virt. eigenvalues --    5.45336   5.46705   5.49636   5.49956   5.50619
 Alpha virt. eigenvalues --    5.50876   5.51108   5.51968   5.52405   5.53490
 Alpha virt. eigenvalues --    5.53817   5.54134   5.56210   5.56998   5.57195
 Alpha virt. eigenvalues --    5.57780   5.60625   5.61102   5.61372   5.62228
 Alpha virt. eigenvalues --    5.62844   5.63392   5.64856   5.65248   5.68236
 Alpha virt. eigenvalues --    5.69500   5.71102   5.71935   5.75507   5.76550
 Alpha virt. eigenvalues --    5.77462   5.77741   5.78485   5.78637   5.79966
 Alpha virt. eigenvalues --    5.80926   5.83401   5.84368   5.84459   5.87274
 Alpha virt. eigenvalues --    5.89362   5.89444   5.89784   5.90381   5.93044
 Alpha virt. eigenvalues --    5.93474   5.94494   5.94808   5.95301   5.95914
 Alpha virt. eigenvalues --    5.96074   5.96642   5.97349   5.97530   5.98151
 Alpha virt. eigenvalues --    5.98403   5.99026   6.00878   6.01257   6.01934
 Alpha virt. eigenvalues --    6.07980   6.08625   6.09113   6.10190   6.13185
 Alpha virt. eigenvalues --    6.13317   6.14089   6.15092   6.19845   6.19952
 Alpha virt. eigenvalues --    6.20506   6.21009   6.21280   6.21674   6.22032
 Alpha virt. eigenvalues --    6.24073   6.26428   6.27240   6.28470   6.29514
 Alpha virt. eigenvalues --    6.33826   6.35868   6.37160   6.39367   6.40300
 Alpha virt. eigenvalues --    6.41646   6.42272   6.43789   6.44098   6.45361
 Alpha virt. eigenvalues --    6.45633   6.45843   6.47091   6.47919   6.48655
 Alpha virt. eigenvalues --    6.49979   6.73894   6.74100   6.75025   6.76049
 Alpha virt. eigenvalues --    6.76623   6.77568   6.78691   6.78971   6.80115
 Alpha virt. eigenvalues --    6.80482   6.81344   6.81788   6.85534   6.86135
 Alpha virt. eigenvalues --    6.87355   6.87582   6.88683   6.90944   6.91269
 Alpha virt. eigenvalues --    6.91500   6.92243   6.92456   6.92919   6.93866
 Alpha virt. eigenvalues --    6.94679   6.96279   6.96328   6.99680   7.00244
 Alpha virt. eigenvalues --    7.00822   7.01108   7.02864   7.05537   7.06998
 Alpha virt. eigenvalues --    7.10433   7.17517   7.18586   7.19248   7.21506
 Alpha virt. eigenvalues --    7.23696   7.29818   7.31536   7.32730   7.33574
 Alpha virt. eigenvalues --    7.35184   7.36439   7.37845   7.38959   7.48707
 Alpha virt. eigenvalues --    7.49690   7.50482   7.50976   7.55556   7.56779
 Alpha virt. eigenvalues --    7.57468   7.58160   9.65996   9.66470   9.78810
 Alpha virt. eigenvalues --    9.97161  10.17119  11.07365  11.11068  11.19066
 Alpha virt. eigenvalues --   11.21354  11.24073  11.26935  11.33916  11.36891
 Alpha virt. eigenvalues --   11.39936  11.45117  11.49779  11.54504  11.57269
 Alpha virt. eigenvalues --   11.62125  12.33432  12.35268  12.45235  12.45750
 Alpha virt. eigenvalues --   12.99964  13.07935  13.11850  13.31626  13.47470
 Alpha virt. eigenvalues --   13.48078  13.49059  13.53604
          Condensed to atoms (all electrons):
 Mulliken charges:
               1
     1  Pb   0.975718
     2  I   -0.631747
     3  I   -0.639344
     4  O   -0.388385
     5  C    0.402244
     6  O   -0.244264
     7  O   -0.227926
     8  C    0.077288
     9  C    0.018563
    10  C   -0.290069
    11  H    0.122182
    12  H    0.117456
    13  H    0.107510
    14  H    0.118833
    15  H    0.116576
    16  H    0.138976
    17  O   -0.395998
    18  C    0.421182
    19  O   -0.255430
    20  O   -0.220909
    21  C    0.070560
    22  C    0.015888
    23  C   -0.278399
    24  H    0.127207
    25  H    0.120087
    26  H    0.088858
    27  H    0.112359
    28  H    0.119373
    29  H    0.137099
    30  O   -0.425649
    31  C    0.433312
    32  O   -0.234728
    33  O   -0.217929
    34  C    0.057361
    35  C    0.017128
    36  C   -0.279533
    37  H    0.130044
    38  H    0.126747
    39  H    0.098103
    40  H    0.115438
    41  H    0.116005
    42  H    0.140900
    43  O   -0.430889
    44  C    0.455197
    45  O   -0.231160
    46  O   -0.229925
    47  C    0.078381
    48  C    0.008287
    49  C   -0.283692
    50  H    0.130493
    51  H    0.128076
    52  H    0.105208
    53  H    0.114580
    54  H    0.115285
    55  H    0.127473
 Sum of Mulliken charges =  -0.00000
 Mulliken charges with hydrogens summed into heavy atoms:
               1
     1  Pb   0.975718
     2  I   -0.631747
     3  I   -0.639344
     4  O   -0.388385
     5  C    0.402244
     6  O   -0.244264
     7  O   -0.227926
     8  C    0.216264
     9  C    0.258201
    10  C    0.052850
    17  O   -0.395998
    18  C    0.421182
    19  O   -0.255430
    20  O   -0.220909
    21  C    0.207659
    22  C    0.263182
    23  C    0.042190
    30  O   -0.425649
    31  C    0.433312
    32  O   -0.234728
    33  O   -0.217929
    34  C    0.198261
    35  C    0.273920
    36  C    0.050012
    43  O   -0.430889
    44  C    0.455197
    45  O   -0.231160
    46  O   -0.229925
    47  C    0.205854
    48  C    0.266855
    49  C    0.051382
 Electronic spatial extent (au):  <R**2>=          14201.1850
 Charge=              0.0000 electrons
 Dipole moment (field-independent basis, Debye):
    X=            -15.1794    Y=             29.8946    Z=             -0.4760  Tot=             33.5310
 Quadrupole moment (field-independent basis, Debye-Ang):
   XX=           -156.0840   YY=           -203.4178   ZZ=           -211.1462
   XY=             25.7565   XZ=            -14.6590   YZ=             -8.4580
 Traceless Quadrupole moment (field-independent basis, Debye-Ang):
   XX=             34.1320   YY=            -13.2018   ZZ=            -20.9302
   XY=             25.7565   XZ=            -14.6590   YZ=             -8.4580
 Octapole moment (field-independent basis, Debye-Ang**2):
  XXX=            -64.5568  YYY=             46.1200  ZZZ=             30.9970  XYY=             61.9177
  XXY=             46.5131  XXZ=             30.8234  XZZ=            -37.2261  YZZ=             61.4590
  YYZ=              4.4643  XYZ=            -34.4965
 Hexadecapole moment (field-independent basis, Debye-Ang**3):
 XXXX=          -6793.6230 YYYY=          -6326.5300 ZZZZ=          -5389.6102 XXXY=            115.1577
 XXXZ=             94.5925 YYYX=             52.2434 YYYZ=           -134.5957 ZZZX=           -170.3465
 ZZZY=            147.2575 XXYY=          -2067.5605 XXZZ=          -2258.4326 YYZZ=          -1727.9021
 XXYZ=            143.5984 YYXZ=             52.0383 ZZXY=           -245.3663
 N-N= 3.402757478264D+03 E-N=-1.042792513826D+04  KE= 1.523877018673D+03
 Unable to Open any file for archive entry.
 1\1\GINC-MPCL050\SP\RCAM-B3LYP TD-FC\Gen\C16H24I2O12Pb1\EDBA4025\12-No
 v-2020\0\\# cam-b3lyp/gen pseudo=read TD=NStates=10 Geom=Check Guess=R
 ead empiricaldispersion=gd3bj SCRF=(read)\\PbI2_PC\\0,1\Pb,0,0.1162170
 224,0.243433034,-1.3056633431\I,0,-0.5282533872,0.7332531051,-4.265883
 3804\I,0,0.4837133911,-2.8420119531,-1.4270889682\O,0,-0.1647114967,2.
 9749545778,-0.5926214075\C,0,0.4763073881,3.0394223711,0.4471564874\O,
 0,1.739038188,2.5834858806,0.5741650034\O,0,-0.0045524924,3.558229986,
 1.5996471838\C,0,2.1142288952,2.600137974,1.9943419057\C,0,1.061439467
 3,3.5494827923,2.5887523462\C,0,3.549555377,3.0489389503,2.1435380135\
 H,0,0.6397690033,3.1937622362,3.5447502621\H,0,1.4382901589,4.58652387
 65,2.6994900016\H,0,3.6920165506,4.0663780307,1.7292565348\H,0,4.23341
 91426,2.349702444,1.6259760606\H,0,3.8212041175,3.0624846488,3.2177134
 588\H,0,1.9642159022,1.5618813176,2.3488219215\O,0,0.1816131485,0.1355
 195359,1.5563190986\C,0,-0.3346823929,-0.8143740064,2.1272126356\O,0,-
 1.6660991295,-0.9386604849,2.3265507399\O,0,0.3556989364,-1.8587362541
 ,2.630833531\C,0,-1.9533312877,-2.2940715911,2.8235571203\C,0,-0.56796
 5075,-2.7441614902,3.3232112109\C,0,-2.5317688922,-3.1263466119,1.6957
 640462\H,0,-0.4284972918,-2.6011827441,4.4115695363\H,0,-0.321211171,-
 3.7823606168,3.0385525958\H,0,-1.7959997477,-3.238027482,0.8730694754\
 H,0,-3.4458769893,-2.6478824677,1.296349064\H,0,-2.7958445489,-4.13184
 18069,2.0791217746\H,0,-2.6699773295,-2.1684513443,3.655484625\O,0,2.6
 677272473,0.3314743868,-1.8254438346\C,0,3.4414096424,-0.07474836,-0.9
 600414982\O,0,3.1313480095,-0.1589582798,0.3451488517\O,0,4.6913934491
 ,-0.4871931053,-1.2300995001\C,0,4.2030286608,-0.8926240506,1.04063672
 21\C,0,5.3595978914,-0.7826449757,0.0305007907\C,0,3.7304558717,-2.301
 0273992,1.3408284144\H,0,6.0537485193,0.05023467,0.2523957341\H,0,5.92
 01534101,-1.7256912151,-0.0956982439\H,0,3.5359864356,-2.8603436472,0.
 4039749998\H,0,2.7968724083,-2.2725040851,1.9339291195\H,0,4.508823232
 5,-2.833671782,1.922291097\H,0,4.4098511144,-0.3235022508,1.965472506\
 O,0,-2.3807073993,-0.3634423822,-0.8862765178\C,0,-2.9624831323,0.2576
 125884,0.003201549\O,0,-2.513645652,1.4072844549,0.5226427195\O,0,-4.1
 217086045,-0.1534892522,0.5476188011\C,0,-3.3313341438,1.7508830874,1.
 6961503357\C,0,-4.5747435636,0.8750157019,1.4764969469\C,0,-3.56912305
 07,3.2422256215,1.7327484755\H,0,-4.9297674388,0.3749104195,2.39374115
 57\H,0,-5.4047953045,1.4284538184,0.993511719\H,0,-4.1118023295,3.5771
 634068,0.8270734909\H,0,-2.6041134646,3.7784652998,1.8014226863\H,0,-4
 .1760884769,3.4957156395,2.6242465954\H,0,-2.7496987892,1.4059697828,2
 .5738093506\\Version=ES64L-G16RevC.01\State=1-A\HF=-1553.2955949\RMSD=
 5.534e-09\PG=C01 [X(C16H24I2O12Pb1)]\\@
 The archive entry for this job was punched.


 YOU KNOW YOU'RE A TEACHER WHEN YOU SAY 2, WRITE 3, AND MEAN 4.
 -- RONALD ANSTROM, HIGH SCHOOL TEACHER, UNDERWOOD, N.D. 1974
 Job cpu time:       0 days 20 hours 16 minutes 53.6 seconds.
 Elapsed time:       0 days  5 hours  4 minutes 15.2 seconds.
 File lengths (MBytes):  RWF=   7086 Int=      0 D2E=      0 Chk=    536 Scr=      1
 Normal termination of Gaussian 16 at Thu Nov 12 00:16:30 2020.
